MODEL 1
REMARK VINA RESULT:     0.749      0.000      0.000
REMARK INTER + INTRA:           3.125
REMARK INTER:                   1.099
REMARK INTRA:                   2.026
REMARK UNBOUND:                 2.026
REMARK SMILES O=C1NC(C(F)(F)F)=C(C(=O)NCCC[NH+]2CCC(c3ccc(F)cc3)CC2)C(c2ccc(F)c(F)c2)N1
REMARK SMILES IDX 13 1 12 2 10 3 11 4 9 6 1 7 2 8 3 9 38 10 4 11 29 12 5 15
REMARK SMILES IDX 6 16 7 17 8 18 30 19 31 20 37 21 32 22 35 23 33 24 36 25
REMARK SMILES IDX 34 26 14 27 15 28 16 29 17 30 28 31 18 32 27 33 19 34 20 36
REMARK SMILES IDX 21 37 26 38 22 39 25 40 23 41 24 42
REMARK H PARENT 12 5 3 13 38 14 16 35
ROOT
ATOM      1  C   UNL     1     -17.903   7.296   5.679  1.00  0.00     0.122 C 
ENDROOT
BRANCH   1   2
ATOM      2  N   UNL     1     -18.218   8.017   6.891  1.00  0.00    -0.352 N 
ATOM      3  C   UNL     1     -18.157   7.446   8.137  1.00  0.00     0.251 C 
ATOM      4  O   UNL     1     -17.790   6.297   8.349  1.00  0.00    -0.270 OA
ATOM      5  H   UNL     1     -18.600   8.954   6.791  1.00  0.00     0.163 HD
BRANCH   3   6
ATOM      6  C   UNL     1     -18.495   8.387   9.216  1.00  0.00     0.072 C 
ATOM      7  O   UNL     1     -19.810  10.507  12.372  1.00  0.00    -0.248 OA
ATOM      8  C   UNL     1     -19.412   9.836  11.430  1.00  0.00     0.320 C 
ATOM      9  N   UNL     1     -19.852  10.042  10.155  1.00  0.00    -0.303 N 
ATOM     10  N   UNL     1     -18.513   8.829  11.593  1.00  0.00    -0.327 N 
ATOM     11  C   UNL     1     -19.493   9.278   9.056  1.00  0.00     0.135 C 
ATOM     12  C   UNL     1     -17.732   8.272  10.499  1.00  0.00     0.152 C 
ATOM     13  H   UNL     1     -20.586  10.745  10.067  1.00  0.00     0.171 HD
ATOM     14  H   UNL     1     -18.119   8.818  12.522  1.00  0.00     0.166 HD
BRANCH  11  15
ATOM     15  C   UNL     1     -20.250   9.526   7.777  1.00  0.00     0.431 C 
ATOM     16  F   UNL     1     -21.063  10.611   7.882  1.00  0.00    -0.165 F 
ATOM     17  F   UNL     1     -21.038   8.476   7.406  1.00  0.00    -0.165 F 
ATOM     18  F   UNL     1     -19.411   9.760   6.733  1.00  0.00    -0.165 F 
ENDBRANCH  11  15
BRANCH  12  19
ATOM     19  C   UNL     1     -16.335   8.874  10.446  1.00  0.00    -0.018 A 
ATOM     20  C   UNL     1     -15.777   9.379   9.254  1.00  0.00     0.009 A 
ATOM     21  C   UNL     1     -15.565   8.947  11.624  1.00  0.00     0.048 A 
ATOM     22  C   UNL     1     -14.507   9.977   9.253  1.00  0.00     0.043 A 
ATOM     23  C   UNL     1     -14.298   9.540  11.608  1.00  0.00     0.159 A 
ATOM     24  C   UNL     1     -13.775  10.051  10.430  1.00  0.00     0.158 A 
ATOM     25  F   UNL     1     -13.570   9.556  12.727  1.00  0.00    -0.204 F 
ATOM     26  F   UNL     1     -12.559  10.611  10.420  1.00  0.00    -0.204 F 
ENDBRANCH  12  19
ENDBRANCH   3   6
ENDBRANCH   1   2
BRANCH   1  27
ATOM     27  C   UNL     1     -19.129   6.831   4.897  1.00  0.00     0.083 C 
BRANCH  27  28
ATOM     28  C   UNL     1     -20.461   7.536   5.177  1.00  0.00     0.264 C 
BRANCH  28  29
ATOM     29  N   UNL     1     -21.063   8.238   3.977  1.00  0.00    -0.335 N 
ATOM     30  C   UNL     1     -20.929   7.430   2.690  1.00  0.00     0.262 C 
ATOM     31  C   UNL     1     -20.661   9.672   3.797  1.00  0.00     0.262 C 
ATOM     32  C   UNL     1     -19.951   8.070   1.704  1.00  0.00     0.070 C 
ATOM     33  C   UNL     1     -19.178   9.759   3.448  1.00  0.00     0.070 C 
ATOM     34  C   UNL     1     -18.746   8.696   2.416  1.00  0.00     0.030 C 
ATOM     35  H   UNL     1     -22.086   8.187   4.163  1.00  0.00     0.348 HD
BRANCH  34  36
ATOM     36  C   UNL     1     -17.717   9.223   1.433  1.00  0.00    -0.044 A 
ATOM     37  C   UNL     1     -16.733  10.153   1.819  1.00  0.00     0.007 A 
ATOM     38  C   UNL     1     -17.749   8.786   0.094  1.00  0.00     0.007 A 
ATOM     39  C   UNL     1     -15.795  10.611   0.896  1.00  0.00     0.039 A 
ATOM     40  C   UNL     1     -16.814   9.259  -0.830  1.00  0.00     0.039 A 
ATOM     41  C   UNL     1     -15.836  10.156  -0.416  1.00  0.00     0.123 A 
ATOM     42  F   UNL     1     -14.920  10.585  -1.300  1.00  0.00    -0.207 F 
ENDBRANCH  34  36
ENDBRANCH  28  29
ENDBRANCH  27  28
ENDBRANCH   1  27
TORSDOF 8
ENDMDL
