MODEL 1
REMARK VINA RESULT:     7.088      0.000      0.000
REMARK INTER + INTRA:          10.027
REMARK INTER:                   9.160
REMARK INTRA:                   0.867
REMARK UNBOUND:                 0.867
REMARK SMILES CC(C)Oc1cccc(-n2c(NNC(=O)Nc3cccc(C#N)c3)nc3ccccc3c2=O)c1
REMARK SMILES IDX 5 1 6 2 7 3 8 4 9 5 34 6 4 7 2 8 1 9 3 10 10 11 11 12 32 13
REMARK SMILES IDX 12 14 25 15 31 16 33 17 26 18 30 19 27 20 29 21 28 22 13 24
REMARK SMILES IDX 14 25 15 26 16 27 17 30 18 31 24 32 19 33 21 34 20 35 22 36
REMARK SMILES IDX 23 37
REMARK H PARENT 12 23 13 28 16 29
ROOT
ATOM      1  C   UNL     1     -18.350   8.714   2.575  1.00  0.00     0.121 A 
ATOM      2  C   UNL     1     -19.282   9.498   3.250  1.00  0.00     0.046 A 
ATOM      3  C   UNL     1     -20.092  10.386   2.542  1.00  0.00     0.006 A 
ATOM      4  C   UNL     1     -19.963  10.503   1.156  1.00  0.00     0.027 A 
ATOM      5  C   UNL     1     -19.016   9.740   0.457  1.00  0.00     0.056 A 
ATOM      6  C   UNL     1     -18.225   8.840   1.187  1.00  0.00     0.073 A 
ENDROOT
BRANCH   1   7
ATOM      7  O   UNL     1     -17.490   7.814   3.140  1.00  0.00    -0.491 OA
BRANCH   7   8
ATOM      8  C   UNL     1     -17.289   7.832   4.557  1.00  0.00     0.167 C 
ATOM      9  C   UNL     1     -18.584   7.448   5.266  1.00  0.00     0.052 C 
ATOM     10  C   UNL     1     -16.895   9.260   4.927  1.00  0.00     0.052 C 
ENDBRANCH   7   8
ENDBRANCH   1   7
BRANCH   5  11
ATOM     11  N   UNL     1     -18.871   9.869  -0.971  1.00  0.00    -0.245 N 
ATOM     12  C   UNL     1     -17.679  10.348  -1.540  1.00  0.00     0.230 C 
ATOM     13  C   UNL     1     -19.976   9.551  -1.774  1.00  0.00     0.267 C 
ATOM     14  N   UNL     1     -16.549  10.533  -0.749  1.00  0.00    -0.265 N 
ATOM     15  N   UNL     1     -17.562  10.596  -2.821  1.00  0.00    -0.213 NA
ATOM     16  C   UNL     1     -19.835   9.802  -3.217  1.00  0.00     0.066 A 
ATOM     17  O   UNL     1     -21.063   9.130  -1.378  1.00  0.00    -0.268 OA
ATOM     18  C   UNL     1     -18.638  10.339  -3.671  1.00  0.00     0.080 A 
ATOM     19  C   UNL     1     -20.886   9.534  -4.106  1.00  0.00     0.016 A 
ATOM     20  C   UNL     1     -18.495  10.611  -5.035  1.00  0.00     0.029 A 
ATOM     21  C   UNL     1     -20.733   9.807  -5.464  1.00  0.00     0.001 A 
ATOM     22  C   UNL     1     -19.536  10.347  -5.929  1.00  0.00     0.002 A 
ATOM     23  H   UNL     1     -16.465   9.870   0.030  1.00  0.00     0.191 HD
BRANCH  14  24
ATOM     24  N   UNL     1     -15.327  10.611  -1.485  1.00  0.00    -0.249 N 
ATOM     25  C   UNL     1     -14.182  10.542  -0.698  1.00  0.00     0.337 C 
ATOM     26  O   UNL     1     -14.240  10.610   0.525  1.00  0.00    -0.247 OA
ATOM     27  N   UNL     1     -13.050  10.424  -1.475  1.00  0.00    -0.307 N 
ATOM     28  H   UNL     1     -15.356   9.973  -2.283  1.00  0.00     0.193 HD
ATOM     29  H   UNL     1     -13.195  10.558  -2.466  1.00  0.00     0.171 HD
BRANCH  27  30
ATOM     30  C   UNL     1     -11.719  10.280  -1.040  1.00  0.00     0.044 A 
ATOM     31  C   UNL     1     -10.716  10.360  -2.014  1.00  0.00     0.026 A 
ATOM     32  C   UNL     1     -11.355  10.052   0.290  1.00  0.00     0.045 A 
ATOM     33  C   UNL     1      -9.369  10.224  -1.668  1.00  0.00     0.004 A 
ATOM     34  C   UNL     1     -10.005   9.915   0.642  1.00  0.00     0.054 A 
ATOM     35  C   UNL     1      -9.013  10.002  -0.340  1.00  0.00     0.019 A 
ATOM     36  C   UNL     1      -9.638   9.682   2.008  1.00  0.00     0.099 C 
ATOM     37  N   UNL     1      -9.321   9.493   3.109  1.00  0.00    -0.192 NA
ENDBRANCH  27  30
ENDBRANCH  14  24
ENDBRANCH   5  11
TORSDOF 5
ENDMDL
