MODEL 1
REMARK VINA RESULT:     4.591      0.000      0.000
REMARK INTER + INTRA:           8.205
REMARK INTER:                   6.470
REMARK INTRA:                   1.735
REMARK UNBOUND:                 1.735
REMARK SMILES CC1=C(C(=O)NCCC[NH+]2CCC(C#N)(c3ccc(F)cc3C#N)CC2)C(c2ccc(F)c(F)c2)NC(=O)N1C
REMARK SMILES IDX 7 1 6 2 4 3 5 4 3 6 2 7 39 8 27 9 37 10 36 11 38 12 1 13
REMARK SMILES IDX 40 14 28 16 29 17 35 18 30 19 33 20 31 21 34 22 32 23 8 24
REMARK SMILES IDX 9 25 10 26 11 27 26 28 12 29 25 30 13 31 14 32 15 33 16 35
REMARK SMILES IDX 17 36 22 37 18 38 21 39 23 40 19 41 24 42 20 43
REMARK H PARENT 6 5 36 15 10 34
ROOT
ATOM      1  C   UNL     1     -17.000   9.091   7.408  1.00  0.00     0.122 C 
ENDROOT
BRANCH   1   2
ATOM      2  N   UNL     1     -16.091   9.420   8.482  1.00  0.00    -0.352 N 
ATOM      3  C   UNL     1     -16.552  10.061   9.609  1.00  0.00     0.251 C 
ATOM      4  O   UNL     1     -17.721  10.397   9.758  1.00  0.00    -0.270 OA
ATOM      5  H   UNL     1     -15.149   9.041   8.490  1.00  0.00     0.163 HD
BRANCH   3   6
ATOM      6  C   UNL     1     -15.554  10.196  10.699  1.00  0.00     0.063 C 
ATOM      7  C   UNL     1     -14.232  10.348  10.479  1.00  0.00     0.030 C 
ATOM      8  N   UNL     1     -13.375  10.457  11.582  1.00  0.00    -0.301 N 
ATOM      9  C   UNL     1     -16.165  10.197  12.067  1.00  0.00     0.152 C 
ATOM     10  C   UNL     1     -13.829  10.496  12.895  1.00  0.00     0.322 C 
ATOM     11  N   UNL     1     -15.167  10.392  13.085  1.00  0.00    -0.327 N 
ATOM     12  O   UNL     1     -13.106  10.611  13.881  1.00  0.00    -0.248 OA
ATOM     13  C   UNL     1     -13.619  10.447   9.099  1.00  0.00     0.065 C 
ATOM     14  C   UNL     1     -11.931  10.585  11.388  1.00  0.00     0.155 C 
ATOM     15  H   UNL     1     -15.453  10.453  14.053  1.00  0.00     0.166 HD
BRANCH   9  16
ATOM     16  C   UNL     1     -16.957   8.926  12.358  1.00  0.00    -0.018 A 
ATOM     17  C   UNL     1     -16.329   7.769  12.863  1.00  0.00     0.009 A 
ATOM     18  C   UNL     1     -18.334   8.878  12.076  1.00  0.00     0.048 A 
ATOM     19  C   UNL     1     -17.060   6.597  13.076  1.00  0.00     0.043 A 
ATOM     20  C   UNL     1     -19.049   7.702  12.279  1.00  0.00     0.159 A 
ATOM     21  C   UNL     1     -18.416   6.567  12.772  1.00  0.00     0.158 A 
ATOM     22  F   UNL     1     -20.352   7.666  11.964  1.00  0.00    -0.204 F 
ATOM     23  F   UNL     1     -19.113   5.437  12.962  1.00  0.00    -0.204 F 
ENDBRANCH   9  16
ENDBRANCH   3   6
ENDBRANCH   1   2
BRANCH   1  24
ATOM     24  C   UNL     1     -16.702   9.886   6.143  1.00  0.00     0.083 C 
BRANCH  24  25
ATOM     25  C   UNL     1     -16.343   9.060   4.909  1.00  0.00     0.264 C 
BRANCH  25  26
ATOM     26  N   UNL     1     -17.168   9.299   3.654  1.00  0.00    -0.335 N 
ATOM     27  C   UNL     1     -16.442   9.993   2.541  1.00  0.00     0.264 C 
ATOM     28  C   UNL     1     -17.990   8.126   3.189  1.00  0.00     0.264 C 
ATOM     29  C   UNL     1     -17.441  10.610   1.564  1.00  0.00     0.089 C 
ATOM     30  C   UNL     1     -18.445   8.304   1.732  1.00  0.00     0.089 C 
ATOM     31  C   UNL     1     -18.740   9.780   1.326  1.00  0.00     0.094 C 
ATOM     32  C   UNL     1     -19.793  10.239   2.273  1.00  0.00     0.074 C 
ATOM     33  N   UNL     1     -20.510  10.519   3.140  1.00  0.00    -0.197 NA
ATOM     34  H   UNL     1     -17.851   9.993   4.008  1.00  0.00     0.348 HD
BRANCH  31  35
ATOM     35  C   UNL     1     -19.227   9.950  -0.139  1.00  0.00    -0.009 A 
ATOM     36  C   UNL     1     -20.605   9.927  -0.450  1.00  0.00     0.010 A 
ATOM     37  C   UNL     1     -18.323  10.130  -1.231  1.00  0.00     0.060 A 
ATOM     38  C   UNL     1     -21.062  10.056  -1.767  1.00  0.00     0.039 A 
ATOM     39  C   UNL     1     -18.795  10.255  -2.547  1.00  0.00     0.059 A 
ATOM     40  C   UNL     1     -16.897  10.182  -1.057  1.00  0.00     0.100 C 
ATOM     41  C   UNL     1     -20.155  10.213  -2.800  1.00  0.00     0.124 A 
ATOM     42  N   UNL     1     -15.756  10.196  -0.852  1.00  0.00    -0.192 NA
ATOM     43  F   UNL     1     -20.597  10.312  -4.061  1.00  0.00    -0.207 F 
ENDBRANCH  31  35
ENDBRANCH  25  26
ENDBRANCH  24  25
ENDBRANCH   1  24
TORSDOF 7
ENDMDL
