MODEL 1
REMARK VINA RESULT:    -4.376      0.000      0.000
REMARK INTER + INTRA:          -5.851
REMARK INTER:                  -6.166
REMARK INTRA:                   0.315
REMARK UNBOUND:                 0.315
REMARK SMILES CC1=C(C(=O)NCCC[NH+]2CCC(c3ccccc3C#N)CC2)C(c2ccc(F)c(F)c2)NC(=O)N1
REMARK SMILES IDX 7 1 6 2 4 3 5 4 3 6 2 7 36 8 24 9 34 10 33 11 35 12 1 13
REMARK SMILES IDX 25 16 26 17 32 18 27 19 30 20 28 21 31 22 29 23 8 24 9 25
REMARK SMILES IDX 10 26 11 27 23 28 12 29 22 30 13 31 14 33 15 34 19 35 16 36
REMARK SMILES IDX 18 37 20 38 17 39 21 40
REMARK H PARENT 6 5 36 14 33 15 10 32
ROOT
ATOM      1  C   UNL     1     -18.617   7.678   6.045  1.00  0.00     0.122 C 
ENDROOT
BRANCH   1   2
ATOM      2  N   UNL     1     -19.059   7.970   7.395  1.00  0.00    -0.352 N 
ATOM      3  C   UNL     1     -18.390   8.840   8.211  1.00  0.00     0.251 C 
ATOM      4  O   UNL     1     -17.304   9.323   7.899  1.00  0.00    -0.270 OA
ATOM      5  H   UNL     1     -19.939   7.562   7.702  1.00  0.00     0.163 HD
BRANCH   3   6
ATOM      6  C   UNL     1     -19.025   9.120   9.515  1.00  0.00     0.063 C 
ATOM      7  C   UNL     1     -20.140   9.873   9.575  1.00  0.00     0.028 C 
ATOM      8  N   UNL     1     -20.765  10.004  10.795  1.00  0.00    -0.311 N 
ATOM      9  C   UNL     1     -18.449   8.445  10.733  1.00  0.00     0.152 C 
ATOM     10  C   UNL     1     -20.436   9.322  11.929  1.00  0.00     0.319 C 
ATOM     11  N   UNL     1     -19.391   8.462  11.833  1.00  0.00    -0.327 N 
ATOM     12  O   UNL     1     -21.064   9.457  12.972  1.00  0.00    -0.248 OA
ATOM     13  C   UNL     1     -20.784  10.611   8.437  1.00  0.00     0.065 C 
ATOM     14  H   UNL     1     -21.589  10.591  10.896  1.00  0.00     0.171 HD
ATOM     15  H   UNL     1     -19.139   8.016  12.707  1.00  0.00     0.166 HD
BRANCH   9  16
ATOM     16  C   UNL     1     -17.125   9.040  11.205  1.00  0.00    -0.018 A 
ATOM     17  C   UNL     1     -16.410   9.921  10.369  1.00  0.00     0.009 A 
ATOM     18  C   UNL     1     -16.568   8.693  12.449  1.00  0.00     0.048 A 
ATOM     19  C   UNL     1     -15.180  10.447  10.776  1.00  0.00     0.043 A 
ATOM     20  C   UNL     1     -15.347   9.231  12.849  1.00  0.00     0.159 A 
ATOM     21  C   UNL     1     -14.657  10.102  12.017  1.00  0.00     0.158 A 
ATOM     22  F   UNL     1     -14.855   8.911  14.053  1.00  0.00    -0.204 F 
ATOM     23  F   UNL     1     -13.482  10.611  12.401  1.00  0.00    -0.204 F 
ENDBRANCH   9  16
ENDBRANCH   3   6
ENDBRANCH   1   2
BRANCH   1  24
ATOM     24  C   UNL     1     -19.707   7.937   4.997  1.00  0.00     0.083 C 
BRANCH  24  25
ATOM     25  C   UNL     1     -20.016   9.422   4.795  1.00  0.00     0.264 C 
BRANCH  25  26
ATOM     26  N   UNL     1     -20.034   9.809   3.332  1.00  0.00    -0.335 N 
ATOM     27  C   UNL     1     -20.764   8.789   2.490  1.00  0.00     0.262 C 
ATOM     28  C   UNL     1     -18.658  10.124   2.797  1.00  0.00     0.262 C 
ATOM     29  C   UNL     1     -20.851   9.265   1.047  1.00  0.00     0.070 C 
ATOM     30  C   UNL     1     -18.752  10.594   1.351  1.00  0.00     0.070 C 
ATOM     31  C   UNL     1     -19.453   9.543   0.476  1.00  0.00     0.032 C 
ATOM     32  H   UNL     1     -20.594  10.687   3.245  1.00  0.00     0.348 HD
BRANCH  31  33
ATOM     33  C   UNL     1     -19.518   9.864  -1.015  1.00  0.00    -0.027 A 
ATOM     34  C   UNL     1     -20.741   9.921  -1.702  1.00  0.00     0.005 A 
ATOM     35  C   UNL     1     -18.327  10.093  -1.756  1.00  0.00     0.055 A 
ATOM     36  C   UNL     1     -20.783  10.225  -3.067  1.00  0.00     0.000 A 
ATOM     37  C   UNL     1     -18.379  10.394  -3.122  1.00  0.00     0.020 A 
ATOM     38  C   UNL     1     -17.039   9.996  -1.124  1.00  0.00     0.099 C 
ATOM     39  C   UNL     1     -19.608  10.465  -3.774  1.00  0.00     0.001 A 
ATOM     40  N   UNL     1     -16.055   9.872  -0.520  1.00  0.00    -0.192 NA
ENDBRANCH  31  33
ENDBRANCH  25  26
ENDBRANCH  24  25
ENDBRANCH   1  24
TORSDOF 7
ENDMDL
