MODEL 1
REMARK VINA RESULT:     1.670      0.000      0.000
REMARK INTER + INTRA:           7.088
REMARK INTER:                   2.451
REMARK INTRA:                   4.636
REMARK UNBOUND:                 4.636
REMARK SMILES N#Cc1cc(F)ccc1C1CC[NH+](CCCNC(=O)C2=C(C(F)(F)F)NC(=O)NC2c2ccc(F)c(F)c2)CC1
REMARK SMILES IDX 15 1 14 2 13 3 10 4 11 5 40 6 12 7 39 8 9 10 1 11 2 12 3 13
REMARK SMILES IDX 4 14 5 15 8 16 7 17 6 18 16 19 17 20 18 21 19 22 20 24 21 25
REMARK SMILES IDX 30 26 26 27 29 28 27 29 28 30 22 33 23 34 24 35 25 36 31 37
REMARK SMILES IDX 32 38 38 39 33 40 36 41 34 42 37 43 35 44
REMARK H PARENT 13 9 17 23 26 31 29 32
ROOT
ATOM      1  C   UNL     1     -16.859   8.354   4.885  1.00  0.00     0.083 C 
ENDROOT
BRANCH   1   2
ATOM      2  C   UNL     1     -18.338   8.726   4.663  1.00  0.00     0.264 C 
BRANCH   2   3
ATOM      3  N   UNL     1     -18.514   9.477   3.342  1.00  0.00    -0.335 N 
ATOM      4  C   UNL     1     -17.536   9.172   0.502  1.00  0.00     0.032 C 
ATOM      5  C   UNL     1     -17.304  10.423   1.383  1.00  0.00     0.070 C 
ATOM      6  C   UNL     1     -18.320   8.081   1.272  1.00  0.00     0.070 C 
ATOM      7  C   UNL     1     -17.193  10.060   2.855  1.00  0.00     0.262 C 
ATOM      8  C   UNL     1     -19.267   8.671   2.303  1.00  0.00     0.262 C 
ATOM      9  H   UNL     1     -19.093  10.308   3.550  1.00  0.00     0.348 HD
BRANCH   4  10
ATOM     10  C   UNL     1     -18.124   9.595  -0.856  1.00  0.00    -0.026 A 
ATOM     11  N   UNL     1     -20.881  10.422   1.201  1.00  0.00    -0.192 NA
ATOM     12  C   UNL     1     -20.271  10.293   0.221  1.00  0.00     0.100 C 
ATOM     13  C   UNL     1     -19.452  10.109  -0.947  1.00  0.00     0.058 A 
ATOM     14  C   UNL     1     -19.999  10.457  -2.189  1.00  0.00     0.059 A 
ATOM     15  C   UNL     1     -19.243  10.299  -3.343  1.00  0.00     0.124 A 
ATOM     16  C   UNL     1     -17.387   9.455  -2.052  1.00  0.00     0.008 A 
ATOM     17  C   UNL     1     -17.944   9.806  -3.285  1.00  0.00     0.039 A 
ATOM     18  F   UNL     1     -19.779  10.611  -4.530  1.00  0.00    -0.207 F 
ENDBRANCH   4  10
ENDBRANCH   2   3
ENDBRANCH   1   2
BRANCH   1  19
ATOM     19  C   UNL     1     -16.111   9.245   5.886  1.00  0.00     0.122 C 
BRANCH  19  20
ATOM     20  N   UNL     1     -16.864   9.465   7.106  1.00  0.00    -0.352 N 
ATOM     21  C   UNL     1     -16.391  10.147   8.203  1.00  0.00     0.251 C 
ATOM     22  O   UNL     1     -15.258  10.612   8.305  1.00  0.00    -0.270 OA
ATOM     23  H   UNL     1     -17.818   9.097   7.124  1.00  0.00     0.163 HD
BRANCH  21  24
ATOM     24  C   UNL     1     -17.340  10.182   9.342  1.00  0.00     0.072 C 
ATOM     25  C   UNL     1     -16.859  10.068  10.595  1.00  0.00     0.135 C 
ATOM     26  C   UNL     1     -18.783  10.471   9.035  1.00  0.00     0.152 C 
ATOM     27  N   UNL     1     -17.764  10.182  11.640  1.00  0.00    -0.303 N 
ATOM     28  N   UNL     1     -19.561  10.611  10.249  1.00  0.00    -0.327 N 
ATOM     29  C   UNL     1     -19.093  10.451  11.511  1.00  0.00     0.320 C 
ATOM     30  O   UNL     1     -19.840  10.535  12.481  1.00  0.00    -0.248 OA
ATOM     31  H   UNL     1     -17.453  10.089  12.605  1.00  0.00     0.171 HD
ATOM     32  H   UNL     1     -20.559  10.795  10.179  1.00  0.00     0.166 HD
BRANCH  25  33
ATOM     33  C   UNL     1     -15.409   9.823  10.960  1.00  0.00     0.431 C 
ATOM     34  F   UNL     1     -15.174  10.057  12.274  1.00  0.00    -0.165 F 
ATOM     35  F   UNL     1     -14.530  10.597  10.264  1.00  0.00    -0.165 F 
ATOM     36  F   UNL     1     -15.054   8.531  10.715  1.00  0.00    -0.165 F 
ENDBRANCH  25  33
BRANCH  26  37
ATOM     37  C   UNL     1     -19.423   9.413   8.140  1.00  0.00    -0.018 A 
ATOM     38  C   UNL     1     -20.396   9.783   7.192  1.00  0.00     0.009 A 
ATOM     39  C   UNL     1     -19.041   8.057   8.220  1.00  0.00     0.048 A 
ATOM     40  C   UNL     1     -20.947   8.832   6.322  1.00  0.00     0.043 A 
ATOM     41  C   UNL     1     -19.591   7.122   7.345  1.00  0.00     0.159 A 
ATOM     42  C   UNL     1     -20.530   7.507   6.398  1.00  0.00     0.158 A 
ATOM     43  F   UNL     1     -19.118   5.865   7.374  1.00  0.00    -0.204 F 
ATOM     44  F   UNL     1     -21.055   6.609   5.553  1.00  0.00    -0.204 F 
ENDBRANCH  26  37
ENDBRANCH  21  24
ENDBRANCH  19  20
ENDBRANCH   1  19
TORSDOF 8
ENDMDL
