REMARK  Name = /mnt/c/Personal/tickdock/data/docking/counterdock_calibration/1RG7_lig_raw.pdb
REMARK  10 active torsions:
REMARK  status: ('A' for Active; 'I' for Inactive)
REMARK    1  A    between atoms: C_9  and  C_13
REMARK    2  A    between atoms: C_13  and  N_14
REMARK    3  A    between atoms: N_14  and  C_15
REMARK    4  A    between atoms: N_14  and  C_19
REMARK    5  A    between atoms: C_16  and  C_22
REMARK    6  A    between atoms: N_24  and  CA_25
REMARK    7  A    between atoms: CA_25  and  C_26
REMARK    8  A    between atoms: CA_25  and  CB_29
REMARK    9  A    between atoms: CB_29  and  CG_30
REMARK   10  A    between atoms: CG_30  and  CD_31
REMARK                            x       y       z     vdW  Elec       q    Type
REMARK                         _______ _______ _______ _____ _____    ______ ____
ROOT
ATOM      1  N   UNK A   0       0.644  18.839  22.957  0.00  0.00    -0.304 N 
ATOM      2  C   UNK A   0       0.833  17.434  23.404  0.00  0.00    +0.112 C 
ENDROOT
BRANCH   1   6
ATOM      3  C   UNK A   0      -3.192  20.244  22.102  0.00  0.00    +0.055 A 
ATOM      4  C   UNK A   0      -2.971  19.004  22.810  0.00  0.00    +0.006 A 
ATOM      5  C   UNK A   0      -1.690  18.582  23.067  0.00  0.00    +0.015 A 
ATOM      6  C   UNK A   0      -0.616  19.376  22.634  0.00  0.00    +0.048 A 
ATOM      7  C   UNK A   0      -0.804  20.567  21.970  0.00  0.00    +0.015 A 
ATOM      8  C   UNK A   0      -2.115  21.022  21.697  0.00  0.00    +0.006 A 
BRANCH   3   9
ATOM      9  C   UNK A   0      -4.489  20.755  21.816  0.00  0.00    +0.265 C 
ATOM     10  O   UNK A   0      -5.525  20.064  21.837  0.00  0.00    -0.268 OA
ATOM     11  N   GLU A   1      -4.631  22.049  21.774  0.00  0.00    -0.192 N 
ATOM     12  H   GLU A   1      -3.923  22.656  22.090  0.00  0.00    +0.000 HD
BRANCH  11  13
ATOM     13  CA  GLU A   1      -5.922  22.571  21.223  0.00  0.00    +0.199 C 
BRANCH  13  14
ATOM     14  C   GLU A   1      -5.722  23.606  20.174  0.00  0.00    +0.384 C 
ATOM     15  OXT GLU A   1      -4.613  24.190  20.099  0.00  0.00    -0.244 OA
ATOM     16  O   GLU A   1      -6.752  23.880  19.479  0.00  0.00    -0.244 OA
ENDBRANCH  13  14
BRANCH  13  17
ATOM     17  CB  GLU A   1      -6.590  23.398  22.329  0.00  0.00    +0.045 C 
BRANCH  17  18
ATOM     18  CG  GLU A   1      -8.031  22.796  22.622  0.00  0.00    +0.116 C 
BRANCH  18  19
ATOM     19  CD  GLU A   1      -8.244  22.891  24.133  0.00  0.00    +0.365 C 
ATOM     20  OE1 GLU A   1      -8.242  21.724  24.644  0.00  0.00    -0.246 OA
ATOM     21  OE2 GLU A   1      -8.268  24.017  24.695  0.00  0.00    -0.246 OA
ENDBRANCH  18  19
ENDBRANCH  17  18
ENDBRANCH  13  17
ENDBRANCH  11  13
ENDBRANCH   3   9
ENDBRANCH   1   6
BRANCH   1  22
ATOM     22  C   UNK A   0       1.861  19.638  22.752  0.00  0.00    +0.121 C 
BRANCH  22  31
ATOM     23  N   UNK A   0       1.904  24.187  25.726  0.00  0.00    -0.348 NA
ATOM     24  C   UNK A   0       2.728  25.163  25.445  0.00  0.00    +0.302 C 
ATOM     25  N   UNK A   0       2.696  26.215  26.158  0.00  0.00    -0.076 N 
ATOM     26  N   UNK A   0       3.621  25.032  24.325  0.00  0.00    -0.145 N 
ATOM     27  C   UNK A   0       3.675  23.949  23.520  0.00  0.00    +0.198 C 
ATOM     28  N   UNK A   0       4.498  23.882  22.531  0.00  0.00    -0.128 N 
ATOM     29  C   UNK A   0       2.715  22.908  23.868  0.00  0.00    +0.160 C 
ATOM     30  N   UNK A   0       2.705  21.831  23.133  0.00  0.00    -0.258 NA
ATOM     31  C   UNK A   0       1.852  20.869  23.544  0.00  0.00    +0.164 C 
ATOM     32  C   UNK A   0       1.063  21.069  24.683  0.00  0.00    +0.101 C 
ATOM     33  N   UNK A   0       1.045  22.133  25.417  0.00  0.00    -0.216 NA
ATOM     34  C   UNK A   0       1.903  23.057  24.949  0.00  0.00    +0.237 C 
ATOM     35  H   UNK A   0       3.308  26.961  25.963  0.00  0.00    +0.000 HD
ATOM     36  H   UNK A   0       2.059  26.284  26.906  0.00  0.00    +0.000 HD
ATOM     37  H   UNK A   0       4.232  25.780  24.133  0.00  0.00    +0.000 HD
ATOM     38  H   UNK A   0       4.517  23.081  21.960  0.00  0.00    +0.000 HD
ATOM     39  H   UNK A   0       5.108  24.632  22.347  0.00  0.00    +0.000 HD
ENDBRANCH  22  31
ENDBRANCH   1  22
TORSDOF 9
