MODEL 1
REMARK VINA RESULT:    -9.945      0.000      0.000
REMARK INTER + INTRA:         -15.830
REMARK INTER:                 -15.177
REMARK INTRA:                  -0.653
REMARK UNBOUND:                -0.653
REMARK  Name = /mnt/c/Personal/tickdock/data/docking/counterdock_calibration/1RG7_lig_raw.pdb
REMARK  10 active torsions:
REMARK  status: ('A' for Active; 'I' for Inactive)
REMARK    1  A    between atoms: C_9  and  C_13
REMARK    2  A    between atoms: C_13  and  N_14
REMARK    3  A    between atoms: N_14  and  C_15
REMARK    4  A    between atoms: N_14  and  C_19
REMARK    5  A    between atoms: C_16  and  C_22
REMARK    6  A    between atoms: N_24  and  CA_25
REMARK    7  A    between atoms: CA_25  and  C_26
REMARK    8  A    between atoms: CA_25  and  CB_29
REMARK    9  A    between atoms: CB_29  and  CG_30
REMARK   10  A    between atoms: CG_30  and  CD_31
REMARK                            x       y       z     vdW  Elec       q    Type
REMARK                         _______ _______ _______ _____ _____    ______ ____
ROOT
ATOM      1  N   UNK A   0       0.380  18.999  23.132  0.00  0.00    -0.304 N 
ATOM      2  C   UNK A   0       0.576  17.657  23.740  0.00  0.00    +0.112 C 
ENDROOT
BRANCH   1   6
ATOM      3  C   UNK A   0      -3.472  20.351  22.262  0.00  0.00    +0.055 A 
ATOM      4  C   UNK A   0      -3.223  19.344  23.267  0.00  0.00    +0.006 A 
ATOM      5  C   UNK A   0      -1.938  18.930  23.518  0.00  0.00    +0.015 A 
ATOM      6  C   UNK A   0      -0.887  19.504  22.785  0.00  0.00    +0.048 A 
ATOM      7  C   UNK A   0      -1.100  20.475  21.832  0.00  0.00    +0.015 A 
ATOM      8  C   UNK A   0      -2.415  20.918  21.560  0.00  0.00    +0.006 A 
BRANCH   3   9
ATOM      9  C   UNK A   0      -4.772  20.844  21.960  0.00  0.00    +0.265 C 
ATOM     10  O   UNK A   0      -5.766  20.113  21.791  0.00  0.00    -0.268 OA
ATOM     11  N   GLU A   1      -4.984  22.120  22.113  0.00  0.00    -0.192 N 
ATOM     12  H   GLU A   1      -4.335  22.698  22.576  0.00  0.00    +0.000 HD
BRANCH  11  13
ATOM     13  CA  GLU A   1      -6.261  22.666  21.553  0.00  0.00    +0.199 C 
BRANCH  13  14
ATOM     14  C   GLU A   1      -6.086  23.263  20.202  0.00  0.00    +0.384 C 
ATOM     15  OXT GLU A   1      -6.815  22.862  19.262  0.00  0.00    -0.244 OA
ATOM     16  O   GLU A   1      -5.125  24.090  20.094  0.00  0.00    -0.244 OA
ENDBRANCH  13  14
BRANCH  13  17
ATOM     17  CB  GLU A   1      -6.627  23.907  22.378  0.00  0.00    +0.045 C 
BRANCH  17  18
ATOM     18  CG  GLU A   1      -6.939  23.459  23.870  0.00  0.00    +0.116 C 
BRANCH  18  19
ATOM     19  CD  GLU A   1      -7.877  24.515  24.455  0.00  0.00    +0.365 C 
ATOM     20  OE1 GLU A   1      -7.612  24.693  25.689  0.00  0.00    -0.246 OA
ATOM     21  OE2 GLU A   1      -8.663  25.145  23.701  0.00  0.00    -0.246 OA
ENDBRANCH  18  19
ENDBRANCH  17  18
ENDBRANCH  13  17
ENDBRANCH  11  13
ENDBRANCH   3   9
ENDBRANCH   1   6
BRANCH   1  22
ATOM     22  C   UNK A   0       1.594  19.757  22.795  0.00  0.00    +0.121 C 
BRANCH  22  31
ATOM     23  N   UNK A   0       2.030  24.375  25.629  0.00  0.00    -0.348 NA
ATOM     24  C   UNK A   0       2.881  25.301  25.273  0.00  0.00    +0.302 C 
ATOM     25  N   UNK A   0       2.942  26.372  25.955  0.00  0.00    -0.076 N 
ATOM     26  N   UNK A   0       3.699  25.097  24.107  0.00  0.00    -0.145 N 
ATOM     27  C   UNK A   0       3.653  23.993  23.332  0.00  0.00    +0.198 C 
ATOM     28  N   UNK A   0       4.412  23.859  22.299  0.00  0.00    -0.128 N 
ATOM     29  C   UNK A   0       2.667  23.009  23.765  0.00  0.00    +0.160 C 
ATOM     30  N   UNK A   0       2.562  21.915  23.063  0.00  0.00    -0.258 NA
ATOM     31  C   UNK A   0       1.691  21.007  23.551  0.00  0.00    +0.164 C 
ATOM     32  C   UNK A   0       0.981  21.276  24.727  0.00  0.00    +0.101 C 
ATOM     33  N   UNK A   0       1.057  22.358  25.430  0.00  0.00    -0.216 NA
ATOM     34  C   UNK A   0       1.929  23.226  24.887  0.00  0.00    +0.237 C 
ATOM     35  H   UNK A   0       3.576  27.082  25.704  0.00  0.00    +0.000 HD
ATOM     36  H   UNK A   0       2.354  26.492  26.737  0.00  0.00    +0.000 HD
ATOM     37  H   UNK A   0       4.332  25.809  23.858  0.00  0.00    +0.000 HD
ATOM     38  H   UNK A   0       4.358  23.044  21.751  0.00  0.00    +0.000 HD
ATOM     39  H   UNK A   0       5.044  24.574  22.058  0.00  0.00    +0.000 HD
ENDBRANCH  22  31
ENDBRANCH   1  22
TORSDOF 9
ENDMDL
MODEL 2
REMARK VINA RESULT:    -9.401      1.993      3.115
REMARK INTER + INTRA:         -15.001
REMARK INTER:                 -13.604
REMARK INTRA:                  -1.396
REMARK UNBOUND:                -0.653
REMARK  Name = /mnt/c/Personal/tickdock/data/docking/counterdock_calibration/1RG7_lig_raw.pdb
REMARK  10 active torsions:
REMARK  status: ('A' for Active; 'I' for Inactive)
REMARK    1  A    between atoms: C_9  and  C_13
REMARK    2  A    between atoms: C_13  and  N_14
REMARK    3  A    between atoms: N_14  and  C_15
REMARK    4  A    between atoms: N_14  and  C_19
REMARK    5  A    between atoms: C_16  and  C_22
REMARK    6  A    between atoms: N_24  and  CA_25
REMARK    7  A    between atoms: CA_25  and  C_26
REMARK    8  A    between atoms: CA_25  and  CB_29
REMARK    9  A    between atoms: CB_29  and  CG_30
REMARK   10  A    between atoms: CG_30  and  CD_31
REMARK                            x       y       z     vdW  Elec       q    Type
REMARK                         _______ _______ _______ _____ _____    ______ ____
ROOT
ATOM      1  N   UNK A   0       1.684  20.323  22.163  0.00  0.00    -0.304 N 
ATOM      2  C   UNK A   0       2.338  20.664  20.873  0.00  0.00    +0.112 C 
ENDROOT
BRANCH   1   6
ATOM      3  C   UNK A   0      -2.398  19.655  22.723  0.00  0.00    +0.055 A 
ATOM      4  C   UNK A   0      -1.397  18.987  23.521  0.00  0.00    +0.006 A 
ATOM      5  C   UNK A   0      -0.065  19.238  23.299  0.00  0.00    +0.015 A 
ATOM      6  C   UNK A   0       0.293  20.150  22.293  0.00  0.00    +0.048 A 
ATOM      7  C   UNK A   0      -0.645  20.808  21.531  0.00  0.00    +0.015 A 
ATOM      8  C   UNK A   0      -2.022  20.566  21.744  0.00  0.00    +0.006 A 
BRANCH   3   9
ATOM      9  C   UNK A   0      -3.796  19.461  22.907  0.00  0.00    +0.265 C 
ATOM     10  O   UNK A   0      -4.282  18.736  23.795  0.00  0.00    -0.268 OA
ATOM     11  N   GLU A   1      -4.604  20.268  22.281  0.00  0.00    -0.192 N 
ATOM     12  H   GLU A   1      -4.277  21.082  21.834  0.00  0.00    +0.000 HD
BRANCH  11  13
ATOM     13  CA  GLU A   1      -6.056  19.899  22.272  0.00  0.00    +0.199 C 
BRANCH  13  14
ATOM     14  C   GLU A   1      -6.453  19.158  21.045  0.00  0.00    +0.384 C 
ATOM     15  OXT GLU A   1      -5.705  19.205  20.037  0.00  0.00    -0.244 OA
ATOM     16  O   GLU A   1      -7.593  18.596  21.096  0.00  0.00    -0.244 OA
ENDBRANCH  13  14
BRANCH  13  17
ATOM     17  CB  GLU A   1      -6.856  21.197  22.103  0.00  0.00    +0.045 C 
BRANCH  17  18
ATOM     18  CG  GLU A   1      -5.847  22.388  21.804  0.00  0.00    +0.116 C 
BRANCH  18  19
ATOM     19  CD  GLU A   1      -6.211  22.931  20.422  0.00  0.00    +0.365 C 
ATOM     20  OE1 GLU A   1      -7.314  22.424  20.036  0.00  0.00    -0.246 OA
ATOM     21  OE2 GLU A   1      -5.517  23.843  19.902  0.00  0.00    -0.246 OA
ENDBRANCH  18  19
ENDBRANCH  17  18
ENDBRANCH  13  17
ENDBRANCH  11  13
ENDBRANCH   3   9
ENDBRANCH   1   6
BRANCH   1  22
ATOM     22  C   UNK A   0       2.547  20.279  23.352  0.00  0.00    +0.121 C 
BRANCH  22  31
ATOM     23  N   UNK A   0       3.853  25.285  25.018  0.00  0.00    -0.348 NA
ATOM     24  C   UNK A   0       2.950  26.074  25.541  0.00  0.00    +0.302 C 
ATOM     25  N   UNK A   0       3.301  27.232  25.930  0.00  0.00    -0.076 N 
ATOM     26  N   UNK A   0       1.600  25.600  25.689  0.00  0.00    -0.145 N 
ATOM     27  C   UNK A   0       1.182  24.370  25.318  0.00  0.00    +0.198 C 
ATOM     28  N   UNK A   0      -0.042  23.998  25.470  0.00  0.00    -0.128 N 
ATOM     29  C   UNK A   0       2.239  23.530  24.768  0.00  0.00    +0.160 C 
ATOM     30  N   UNK A   0       1.913  22.325  24.390  0.00  0.00    -0.258 NA
ATOM     31  C   UNK A   0       2.911  21.618  23.818  0.00  0.00    +0.164 C 
ATOM     32  C   UNK A   0       4.180  22.189  23.668  0.00  0.00    +0.101 C 
ATOM     33  N   UNK A   0       4.530  23.374  24.048  0.00  0.00    -0.216 NA
ATOM     34  C   UNK A   0       3.499  24.021  24.621  0.00  0.00    +0.237 C 
ATOM     35  H   UNK A   0       2.636  27.841  26.326  0.00  0.00    +0.000 HD
ATOM     36  H   UNK A   0       4.237  27.521  25.835  0.00  0.00    +0.000 HD
ATOM     37  H   UNK A   0       0.938  26.212  26.085  0.00  0.00    +0.000 HD
ATOM     38  H   UNK A   0      -0.320  23.096  25.191  0.00  0.00    +0.000 HD
ATOM     39  H   UNK A   0      -0.699  24.615  25.863  0.00  0.00    +0.000 HD
ENDBRANCH  22  31
ENDBRANCH   1  22
TORSDOF 9
ENDMDL
MODEL 3
REMARK VINA RESULT:    -9.268      4.360      8.658
REMARK INTER + INTRA:         -14.798
REMARK INTER:                 -13.617
REMARK INTRA:                  -1.181
REMARK UNBOUND:                -0.653
REMARK  Name = /mnt/c/Personal/tickdock/data/docking/counterdock_calibration/1RG7_lig_raw.pdb
REMARK  10 active torsions:
REMARK  status: ('A' for Active; 'I' for Inactive)
REMARK    1  A    between atoms: C_9  and  C_13
REMARK    2  A    between atoms: C_13  and  N_14
REMARK    3  A    between atoms: N_14  and  C_15
REMARK    4  A    between atoms: N_14  and  C_19
REMARK    5  A    between atoms: C_16  and  C_22
REMARK    6  A    between atoms: N_24  and  CA_25
REMARK    7  A    between atoms: CA_25  and  C_26
REMARK    8  A    between atoms: CA_25  and  CB_29
REMARK    9  A    between atoms: CB_29  and  CG_30
REMARK   10  A    between atoms: CG_30  and  CD_31
REMARK                            x       y       z     vdW  Elec       q    Type
REMARK                         _______ _______ _______ _____ _____    ______ ____
ROOT
ATOM      1  N   UNK A   0      -3.027  18.742  23.307  0.00  0.00    -0.304 N 
ATOM      2  C   UNK A   0      -3.293  18.016  24.576  0.00  0.00    +0.112 C 
ENDROOT
BRANCH   1   6
ATOM      3  C   UNK A   0       0.703  20.498  22.662  0.00  0.00    +0.055 A 
ATOM      4  C   UNK A   0       0.491  19.507  23.692  0.00  0.00    +0.006 A 
ATOM      5  C   UNK A   0      -0.755  18.959  23.867  0.00  0.00    +0.015 A 
ATOM      6  C   UNK A   0      -1.802  19.376  23.030  0.00  0.00    +0.048 A 
ATOM      7  C   UNK A   0      -1.619  20.308  22.034  0.00  0.00    +0.015 A 
ATOM      8  C   UNK A   0      -0.343  20.884  21.835  0.00  0.00    +0.006 A 
BRANCH   3   9
ATOM      9  C   UNK A   0       1.969  21.097  22.409  0.00  0.00    +0.265 C 
ATOM     10  O   UNK A   0       2.291  21.597  21.315  0.00  0.00    -0.268 OA
ATOM     11  N   GLU A   1       2.730  21.355  23.434  0.00  0.00    -0.192 N 
ATOM     12  H   GLU A   1       2.389  21.300  24.356  0.00  0.00    +0.000 HD
BRANCH  11  13
ATOM     13  CA  GLU A   1       4.148  21.739  23.146  0.00  0.00    +0.199 C 
BRANCH  13  14
ATOM     14  C   GLU A   1       5.113  20.651  23.456  0.00  0.00    +0.384 C 
ATOM     15  OXT GLU A   1       4.719  19.459  23.417  0.00  0.00    -0.244 OA
ATOM     16  O   GLU A   1       6.265  21.039  23.832  0.00  0.00    -0.244 OA
ENDBRANCH  13  14
BRANCH  13  17
ATOM     17  CB  GLU A   1       4.554  22.797  24.180  0.00  0.00    +0.045 C 
BRANCH  17  18
ATOM     18  CG  GLU A   1       3.752  24.137  23.887  0.00  0.00    +0.116 C 
BRANCH  18  19
ATOM     19  CD  GLU A   1       2.823  24.358  25.081  0.00  0.00    +0.365 C 
ATOM     20  OE1 GLU A   1       3.170  25.411  25.710  0.00  0.00    -0.246 OA
ATOM     21  OE2 GLU A   1       1.816  23.621  25.239  0.00  0.00    -0.246 OA
ENDBRANCH  18  19
ENDBRANCH  17  18
ENDBRANCH  13  17
ENDBRANCH  11  13
ENDBRANCH   3   9
ENDBRANCH   1   6
BRANCH   1  22
ATOM     22  C   UNK A   0      -4.154  18.873  22.370  0.00  0.00    +0.121 C 
BRANCH  22  31
ATOM     23  N   UNK A   0      -7.871  22.369  24.239  0.00  0.00    -0.348 NA
ATOM     24  C   UNK A   0      -7.769  23.650  23.994  0.00  0.00    +0.302 C 
ATOM     25  N   UNK A   0      -8.668  24.432  24.438  0.00  0.00    -0.076 N 
ATOM     26  N   UNK A   0      -6.665  24.132  23.207  0.00  0.00    -0.145 N 
ATOM     27  C   UNK A   0      -5.701  23.341  22.688  0.00  0.00    +0.198 C 
ATOM     28  N   UNK A   0      -4.731  23.826  21.993  0.00  0.00    -0.128 N 
ATOM     29  C   UNK A   0      -5.885  21.923  22.973  0.00  0.00    +0.160 C 
ATOM     30  N   UNK A   0      -4.994  21.096  22.502  0.00  0.00    -0.258 NA
ATOM     31  C   UNK A   0      -5.170  19.806  22.858  0.00  0.00    +0.164 C 
ATOM     32  C   UNK A   0      -6.247  19.443  23.677  0.00  0.00    +0.101 C 
ATOM     33  N   UNK A   0      -7.150  20.243  24.142  0.00  0.00    -0.216 NA
ATOM     34  C   UNK A   0      -6.928  21.507  23.741  0.00  0.00    +0.237 C 
ATOM     35  H   UNK A   0      -8.609  25.399  24.265  0.00  0.00    +0.000 HD
ATOM     36  H   UNK A   0      -9.423  24.070  24.956  0.00  0.00    +0.000 HD
ATOM     37  H   UNK A   0      -6.610  25.100  23.036  0.00  0.00    +0.000 HD
ATOM     38  H   UNK A   0      -4.041  23.228  21.626  0.00  0.00    +0.000 HD
ATOM     39  H   UNK A   0      -4.680  24.795  21.828  0.00  0.00    +0.000 HD
ENDBRANCH  22  31
ENDBRANCH   1  22
TORSDOF 9
ENDMDL
MODEL 4
REMARK VINA RESULT:    -9.101      4.620      9.139
REMARK INTER + INTRA:         -14.543
REMARK INTER:                 -13.568
REMARK INTRA:                  -0.976
REMARK UNBOUND:                -0.653
REMARK  Name = /mnt/c/Personal/tickdock/data/docking/counterdock_calibration/1RG7_lig_raw.pdb
REMARK  10 active torsions:
REMARK  status: ('A' for Active; 'I' for Inactive)
REMARK    1  A    between atoms: C_9  and  C_13
REMARK    2  A    between atoms: C_13  and  N_14
REMARK    3  A    between atoms: N_14  and  C_15
REMARK    4  A    between atoms: N_14  and  C_19
REMARK    5  A    between atoms: C_16  and  C_22
REMARK    6  A    between atoms: N_24  and  CA_25
REMARK    7  A    between atoms: CA_25  and  C_26
REMARK    8  A    between atoms: CA_25  and  CB_29
REMARK    9  A    between atoms: CB_29  and  CG_30
REMARK   10  A    between atoms: CG_30  and  CD_31
REMARK                            x       y       z     vdW  Elec       q    Type
REMARK                         _______ _______ _______ _____ _____    ______ ____
ROOT
ATOM      1  N   UNK A   0      -4.012  18.311  21.700  0.00  0.00    -0.304 N 
ATOM      2  C   UNK A   0      -4.413  16.903  21.956  0.00  0.00    +0.112 C 
ENDROOT
BRANCH   1   6
ATOM      3  C   UNK A   0      -0.467  19.793  23.330  0.00  0.00    +0.055 A 
ATOM      4  C   UNK A   0      -1.104  18.600  23.840  0.00  0.00    +0.006 A 
ATOM      5  C   UNK A   0      -2.271  18.152  23.271  0.00  0.00    +0.015 A 
ATOM      6  C   UNK A   0      -2.820  18.869  22.196  0.00  0.00    +0.048 A 
ATOM      7  C   UNK A   0      -2.222  20.000  21.687  0.00  0.00    +0.015 A 
ATOM      8  C   UNK A   0      -1.019  20.478  22.255  0.00  0.00    +0.006 A 
BRANCH   3   9
ATOM      9  C   UNK A   0       0.752  20.307  23.855  0.00  0.00    +0.265 C 
ATOM     10  O   UNK A   0       0.868  20.777  25.002  0.00  0.00    -0.268 OA
ATOM     11  N   GLU A   1       1.846  20.050  23.198  0.00  0.00    -0.192 N 
ATOM     12  H   GLU A   1       1.866  19.390  22.467  0.00  0.00    +0.000 HD
BRANCH  11  13
ATOM     13  CA  GLU A   1       3.075  20.803  23.607  0.00  0.00    +0.199 C 
BRANCH  13  14
ATOM     14  C   GLU A   1       3.113  22.183  23.054  0.00  0.00    +0.384 C 
ATOM     15  OXT GLU A   1       3.172  23.154  23.847  0.00  0.00    -0.244 OA
ATOM     16  O   GLU A   1       2.989  22.265  21.790  0.00  0.00    -0.244 OA
ENDBRANCH  13  14
BRANCH  13  17
ATOM     17  CB  GLU A   1       4.266  20.163  22.882  0.00  0.00    +0.045 C 
BRANCH  17  18
ATOM     18  CG  GLU A   1       5.601  20.536  23.658  0.00  0.00    +0.116 C 
BRANCH  18  19
ATOM     19  CD  GLU A   1       6.598  19.412  23.376  0.00  0.00    +0.365 C 
ATOM     20  OE1 GLU A   1       7.130  19.023  24.466  0.00  0.00    -0.246 OA
ATOM     21  OE2 GLU A   1       6.693  18.932  22.217  0.00  0.00    -0.246 OA
ENDBRANCH  18  19
ENDBRANCH  17  18
ENDBRANCH  13  17
ENDBRANCH  11  13
ENDBRANCH   3   9
ENDBRANCH   1   6
BRANCH   1  22
ATOM     22  C   UNK A   0      -4.981  19.156  20.987  0.00  0.00    +0.121 C 
BRANCH  22  31
ATOM     23  N   UNK A   0      -7.549  22.540  24.378  0.00  0.00    -0.348 NA
ATOM     24  C   UNK A   0      -7.424  23.835  24.253  0.00  0.00    +0.302 C 
ATOM     25  N   UNK A   0      -8.052  24.591  25.059  0.00  0.00    -0.076 N 
ATOM     26  N   UNK A   0      -6.607  24.367  23.195  0.00  0.00    -0.145 N 
ATOM     27  C   UNK A   0      -5.942  23.609  22.296  0.00  0.00    +0.198 C 
ATOM     28  N   UNK A   0      -5.220  24.137  21.368  0.00  0.00    -0.128 N 
ATOM     29  C   UNK A   0      -6.143  22.175  22.471  0.00  0.00    +0.160 C 
ATOM     30  N   UNK A   0      -5.535  21.378  21.637  0.00  0.00    -0.258 NA
ATOM     31  C   UNK A   0      -5.693  20.062  21.890  0.00  0.00    +0.164 C 
ATOM     32  C   UNK A   0      -6.464  19.643  22.982  0.00  0.00    +0.101 C 
ATOM     33  N   UNK A   0      -7.088  20.414  23.811  0.00  0.00    -0.216 NA
ATOM     34  C   UNK A   0      -6.903  21.709  23.498  0.00  0.00    +0.237 C 
ATOM     35  H   UNK A   0      -7.971  25.569  24.982  0.00  0.00    +0.000 HD
ATOM     36  H   UNK A   0      -8.621  24.199  25.761  0.00  0.00    +0.000 HD
ATOM     37  H   UNK A   0      -6.528  25.345  23.121  0.00  0.00    +0.000 HD
ATOM     38  H   UNK A   0      -4.746  23.562  20.726  0.00  0.00    +0.000 HD
ATOM     39  H   UNK A   0      -5.143  25.116  21.303  0.00  0.00    +0.000 HD
ENDBRANCH  22  31
ENDBRANCH   1  22
TORSDOF 9
ENDMDL
MODEL 5
REMARK VINA RESULT:    -8.734      5.356     10.141
REMARK INTER + INTRA:         -13.982
REMARK INTER:                 -12.750
REMARK INTRA:                  -1.232
REMARK UNBOUND:                -0.653
REMARK  Name = /mnt/c/Personal/tickdock/data/docking/counterdock_calibration/1RG7_lig_raw.pdb
REMARK  10 active torsions:
REMARK  status: ('A' for Active; 'I' for Inactive)
REMARK    1  A    between atoms: C_9  and  C_13
REMARK    2  A    between atoms: C_13  and  N_14
REMARK    3  A    between atoms: N_14  and  C_15
REMARK    4  A    between atoms: N_14  and  C_19
REMARK    5  A    between atoms: C_16  and  C_22
REMARK    6  A    between atoms: N_24  and  CA_25
REMARK    7  A    between atoms: CA_25  and  C_26
REMARK    8  A    between atoms: CA_25  and  CB_29
REMARK    9  A    between atoms: CB_29  and  CG_30
REMARK   10  A    between atoms: CG_30  and  CD_31
REMARK                            x       y       z     vdW  Elec       q    Type
REMARK                         _______ _______ _______ _____ _____    ______ ____
ROOT
ATOM      1  N   UNK A   0      -2.428  17.914  23.337  0.00  0.00    -0.304 N 
ATOM      2  C   UNK A   0      -2.473  16.436  23.485  0.00  0.00    +0.112 C 
ENDROOT
BRANCH   1   6
ATOM      3  C   UNK A   0       1.000  20.214  22.718  0.00  0.00    +0.055 A 
ATOM      4  C   UNK A   0      -0.322  20.713  22.416  0.00  0.00    +0.006 A 
ATOM      5  C   UNK A   0      -1.420  19.918  22.635  0.00  0.00    +0.015 A 
ATOM      6  C   UNK A   0      -1.229  18.629  23.157  0.00  0.00    +0.048 A 
ATOM      7  C   UNK A   0       0.020  18.139  23.465  0.00  0.00    +0.015 A 
ATOM      8  C   UNK A   0       1.164  18.941  23.249  0.00  0.00    +0.006 A 
BRANCH   3   9
ATOM      9  C   UNK A   0       2.182  20.984  22.536  0.00  0.00    +0.265 C 
ATOM     10  O   UNK A   0       2.366  21.751  21.572  0.00  0.00    -0.268 OA
ATOM     11  N   GLU A   1       3.000  21.081  23.545  0.00  0.00    -0.192 N 
ATOM     12  H   GLU A   1       2.743  20.783  24.447  0.00  0.00    +0.000 HD
BRANCH  11  13
ATOM     13  CA  GLU A   1       4.350  21.669  23.268  0.00  0.00    +0.199 C 
BRANCH  13  14
ATOM     14  C   GLU A   1       5.458  20.715  23.542  0.00  0.00    +0.384 C 
ATOM     15  OXT GLU A   1       5.233  19.482  23.465  0.00  0.00    -0.244 OA
ATOM     16  O   GLU A   1       6.548  21.247  23.928  0.00  0.00    -0.244 OA
ENDBRANCH  13  14
BRANCH  13  17
ATOM     17  CB  GLU A   1       4.610  22.738  24.337  0.00  0.00    +0.045 C 
BRANCH  17  18
ATOM     18  CG  GLU A   1       3.834  24.065  23.936  0.00  0.00    +0.116 C 
BRANCH  18  19
ATOM     19  CD  GLU A   1       2.875  24.373  25.086  0.00  0.00    +0.365 C 
ATOM     20  OE1 GLU A   1       1.946  23.502  25.119  0.00  0.00    -0.246 OA
ATOM     21  OE2 GLU A   1       3.142  25.298  25.897  0.00  0.00    -0.246 OA
ENDBRANCH  18  19
ENDBRANCH  17  18
ENDBRANCH  13  17
ENDBRANCH  11  13
ENDBRANCH   3   9
ENDBRANCH   1   6
BRANCH   1  22
ATOM     22  C   UNK A   0      -3.699  18.635  23.501  0.00  0.00    +0.121 C 
BRANCH  22  31
ATOM     23  N   UNK A   0      -7.441  16.858  19.983  0.00  0.00    -0.348 NA
ATOM     24  C   UNK A   0      -8.286  15.919  20.321  0.00  0.00    +0.302 C 
ATOM     25  N   UNK A   0      -9.154  15.542  19.472  0.00  0.00    -0.076 N 
ATOM     26  N   UNK A   0      -8.230  15.364  21.647  0.00  0.00    -0.145 N 
ATOM     27  C   UNK A   0      -7.348  15.749  22.594  0.00  0.00    +0.198 C 
ATOM     28  N   UNK A   0      -7.339  15.215  23.766  0.00  0.00    -0.128 N 
ATOM     29  C   UNK A   0      -6.451  16.816  22.165  0.00  0.00    +0.160 C 
ATOM     30  N   UNK A   0      -5.571  17.244  23.027  0.00  0.00    -0.258 NA
ATOM     31  C   UNK A   0      -4.718  18.177  22.555  0.00  0.00    +0.164 C 
ATOM     32  C   UNK A   0      -4.817  18.613  21.229  0.00  0.00    +0.101 C 
ATOM     33  N   UNK A   0      -5.690  18.215  20.362  0.00  0.00    -0.216 NA
ATOM     34  C   UNK A   0      -6.518  17.299  20.895  0.00  0.00    +0.237 C 
ATOM     35  H   UNK A   0      -9.799  14.837  19.707  0.00  0.00    +0.000 HD
ATOM     36  H   UNK A   0      -9.181  15.956  18.579  0.00  0.00    +0.000 HD
ATOM     37  H   UNK A   0      -8.877  14.659  21.879  0.00  0.00    +0.000 HD
ATOM     38  H   UNK A   0      -6.685  15.514  24.438  0.00  0.00    +0.000 HD
ATOM     39  H   UNK A   0      -7.986  14.508  23.990  0.00  0.00    +0.000 HD
ENDBRANCH  22  31
ENDBRANCH   1  22
TORSDOF 9
ENDMDL
MODEL 6
REMARK VINA RESULT:    -8.724      3.516      4.970
REMARK INTER + INTRA:         -13.967
REMARK INTER:                 -12.765
REMARK INTRA:                  -1.202
REMARK UNBOUND:                -0.653
REMARK  Name = /mnt/c/Personal/tickdock/data/docking/counterdock_calibration/1RG7_lig_raw.pdb
REMARK  10 active torsions:
REMARK  status: ('A' for Active; 'I' for Inactive)
REMARK    1  A    between atoms: C_9  and  C_13
REMARK    2  A    between atoms: C_13  and  N_14
REMARK    3  A    between atoms: N_14  and  C_15
REMARK    4  A    between atoms: N_14  and  C_19
REMARK    5  A    between atoms: C_16  and  C_22
REMARK    6  A    between atoms: N_24  and  CA_25
REMARK    7  A    between atoms: CA_25  and  C_26
REMARK    8  A    between atoms: CA_25  and  CB_29
REMARK    9  A    between atoms: CB_29  and  CG_30
REMARK   10  A    between atoms: CG_30  and  CD_31
REMARK                            x       y       z     vdW  Elec       q    Type
REMARK                         _______ _______ _______ _____ _____    ______ ____
ROOT
ATOM      1  N   UNK A   0       1.752  20.152  22.242  0.00  0.00    -0.304 N 
ATOM      2  C   UNK A   0       1.958  20.805  20.923  0.00  0.00    +0.112 C 
ENDROOT
BRANCH   1   6
ATOM      3  C   UNK A   0      -1.816  18.431  23.557  0.00  0.00    +0.055 A 
ATOM      4  C   UNK A   0      -0.531  17.819  23.811  0.00  0.00    +0.006 A 
ATOM      5  C   UNK A   0       0.615  18.423  23.357  0.00  0.00    +0.015 A 
ATOM      6  C   UNK A   0       0.510  19.633  22.653  0.00  0.00    +0.048 A 
ATOM      7  C   UNK A   0      -0.702  20.240  22.412  0.00  0.00    +0.015 A 
ATOM      8  C   UNK A   0      -1.895  19.637  22.872  0.00  0.00    +0.006 A 
BRANCH   3   9
ATOM      9  C   UNK A   0      -3.044  17.875  24.011  0.00  0.00    +0.265 C 
ATOM     10  O   UNK A   0      -3.485  18.022  25.167  0.00  0.00    -0.268 OA
ATOM     11  N   GLU A   1      -3.861  17.402  23.113  0.00  0.00    -0.192 N 
ATOM     12  H   GLU A   1      -3.723  17.569  22.152  0.00  0.00    +0.000 HD
BRANCH  11  13
ATOM     13  CA  GLU A   1      -5.019  16.594  23.610  0.00  0.00    +0.199 C 
BRANCH  13  14
ATOM     14  C   GLU A   1      -4.825  15.133  23.417  0.00  0.00    +0.384 C 
ATOM     15  OXT GLU A   1      -4.675  14.687  22.253  0.00  0.00    -0.244 OA
ATOM     16  O   GLU A   1      -4.917  14.429  24.474  0.00  0.00    -0.244 OA
ENDBRANCH  13  14
BRANCH  13  17
ATOM     17  CB  GLU A   1      -6.200  16.861  22.667  0.00  0.00    +0.045 C 
BRANCH  17  18
ATOM     18  CG  GLU A   1      -5.982  18.263  21.953  0.00  0.00    +0.116 C 
BRANCH  18  19
ATOM     19  CD  GLU A   1      -6.201  18.031  20.458  0.00  0.00    +0.365 C 
ATOM     20  OE1 GLU A   1      -6.932  17.002  20.284  0.00  0.00    -0.246 OA
ATOM     21  OE2 GLU A   1      -5.785  18.875  19.623  0.00  0.00    -0.246 OA
ENDBRANCH  18  19
ENDBRANCH  17  18
ENDBRANCH  13  17
ENDBRANCH  11  13
ENDBRANCH   3   9
ENDBRANCH   1   6
BRANCH   1  22
ATOM     22  C   UNK A   0       2.890  20.166  23.173  0.00  0.00    +0.121 C 
BRANCH  22  31
ATOM     23  N   UNK A   0       3.893  25.190  24.986  0.00  0.00    -0.348 NA
ATOM     24  C   UNK A   0       2.938  25.918  25.504  0.00  0.00    +0.302 C 
ATOM     25  N   UNK A   0       3.219  27.083  25.929  0.00  0.00    -0.076 N 
ATOM     26  N   UNK A   0       1.612  25.372  25.607  0.00  0.00    -0.145 N 
ATOM     27  C   UNK A   0       1.268  24.132  25.198  0.00  0.00    +0.198 C 
ATOM     28  N   UNK A   0       0.061  23.694  25.309  0.00  0.00    -0.128 N 
ATOM     29  C   UNK A   0       2.380  23.361  24.655  0.00  0.00    +0.160 C 
ATOM     30  N   UNK A   0       2.126  22.151  24.241  0.00  0.00    -0.258 NA
ATOM     31  C   UNK A   0       3.172  21.510  23.679  0.00  0.00    +0.164 C 
ATOM     32  C   UNK A   0       4.414  22.149  23.574  0.00  0.00    +0.101 C 
ATOM     33  N   UNK A   0       4.692  23.341  23.990  0.00  0.00    -0.216 NA
ATOM     34  C   UNK A   0       3.616  23.920  24.552  0.00  0.00    +0.237 C 
ATOM     35  H   UNK A   0       2.514  27.647  26.322  0.00  0.00    +0.000 HD
ATOM     36  H   UNK A   0       4.141  27.422  25.864  0.00  0.00    +0.000 HD
ATOM     37  H   UNK A   0       0.909  25.939  26.000  0.00  0.00    +0.000 HD
ATOM     38  H   UNK A   0      -0.163  22.786  25.003  0.00  0.00    +0.000 HD
ATOM     39  H   UNK A   0      -0.636  24.267  25.701  0.00  0.00    +0.000 HD
ENDBRANCH  22  31
ENDBRANCH   1  22
TORSDOF 9
ENDMDL
MODEL 7
REMARK VINA RESULT:    -8.445      2.283      2.762
REMARK INTER + INTRA:         -13.541
REMARK INTER:                 -12.715
REMARK INTRA:                  -0.826
REMARK UNBOUND:                -0.653
REMARK  Name = /mnt/c/Personal/tickdock/data/docking/counterdock_calibration/1RG7_lig_raw.pdb
REMARK  10 active torsions:
REMARK  status: ('A' for Active; 'I' for Inactive)
REMARK    1  A    between atoms: C_9  and  C_13
REMARK    2  A    between atoms: C_13  and  N_14
REMARK    3  A    between atoms: N_14  and  C_15
REMARK    4  A    between atoms: N_14  and  C_19
REMARK    5  A    between atoms: C_16  and  C_22
REMARK    6  A    between atoms: N_24  and  CA_25
REMARK    7  A    between atoms: CA_25  and  C_26
REMARK    8  A    between atoms: CA_25  and  CB_29
REMARK    9  A    between atoms: CB_29  and  CG_30
REMARK   10  A    between atoms: CG_30  and  CD_31
REMARK                            x       y       z     vdW  Elec       q    Type
REMARK                         _______ _______ _______ _____ _____    ______ ____
ROOT
ATOM      1  N   UNK A   0       0.648  19.808  22.511  0.00  0.00    -0.304 N 
ATOM      2  C   UNK A   0       1.266  18.583  23.084  0.00  0.00    +0.112 C 
ENDROOT
BRANCH   1   6
ATOM      3  C   UNK A   0      -3.479  20.364  22.782  0.00  0.00    +0.055 A 
ATOM      4  C   UNK A   0      -2.835  19.163  23.261  0.00  0.00    +0.006 A 
ATOM      5  C   UNK A   0      -1.474  19.025  23.149  0.00  0.00    +0.015 A 
ATOM      6  C   UNK A   0      -0.734  20.067  22.569  0.00  0.00    +0.048 A 
ATOM      7  C   UNK A   0      -1.325  21.225  22.118  0.00  0.00    +0.015 A 
ATOM      8  C   UNK A   0      -2.725  21.390  22.226  0.00  0.00    +0.006 A 
BRANCH   3   9
ATOM      9  C   UNK A   0      -4.881  20.587  22.882  0.00  0.00    +0.265 C 
ATOM     10  O   UNK A   0      -5.716  19.678  23.047  0.00  0.00    -0.268 OA
ATOM     11  N   GLU A   1      -5.285  21.813  23.056  0.00  0.00    -0.192 N 
ATOM     12  H   GLU A   1      -4.656  22.537  23.280  0.00  0.00    +0.000 HD
BRANCH  11  13
ATOM     13  CA  GLU A   1      -6.752  22.071  22.900  0.00  0.00    +0.199 C 
BRANCH  13  14
ATOM     14  C   GLU A   1      -7.088  22.716  21.603  0.00  0.00    +0.384 C 
ATOM     15  OXT GLU A   1      -6.155  23.117  20.864  0.00  0.00    -0.244 OA
ATOM     16  O   GLU A   1      -8.330  22.890  21.389  0.00  0.00    -0.244 OA
ENDBRANCH  13  14
BRANCH  13  17
ATOM     17  CB  GLU A   1      -7.129  23.183  23.888  0.00  0.00    +0.045 C 
BRANCH  17  18
ATOM     18  CG  GLU A   1      -8.007  22.558  25.056  0.00  0.00    +0.116 C 
BRANCH  18  19
ATOM     19  CD  GLU A   1      -7.780  23.433  26.288  0.00  0.00    +0.365 C 
ATOM     20  OE1 GLU A   1      -7.635  22.699  27.319  0.00  0.00    -0.246 OA
ATOM     21  OE2 GLU A   1      -7.641  24.677  26.159  0.00  0.00    -0.246 OA
ENDBRANCH  18  19
ENDBRANCH  17  18
ENDBRANCH  13  17
ENDBRANCH  11  13
ENDBRANCH   3   9
ENDBRANCH   1   6
BRANCH   1  22
ATOM     22  C   UNK A   0       1.538  20.711  21.765  0.00  0.00    +0.121 C 
BRANCH  22  31
ATOM     23  N   UNK A   0       5.601  22.506  24.896  0.00  0.00    -0.348 NA
ATOM     24  C   UNK A   0       6.751  21.883  24.925  0.00  0.00    +0.302 C 
ATOM     25  N   UNK A   0       7.679  22.344  25.661  0.00  0.00    -0.076 N 
ATOM     26  N   UNK A   0       6.941  20.717  24.103  0.00  0.00    -0.145 N 
ATOM     27  C   UNK A   0       5.999  20.204  23.284  0.00  0.00    +0.198 C 
ATOM     28  N   UNK A   0       6.221  19.153  22.572  0.00  0.00    -0.128 N 
ATOM     29  C   UNK A   0       4.750  20.957  23.277  0.00  0.00    +0.160 C 
ATOM     30  N   UNK A   0       3.792  20.524  22.506  0.00  0.00    -0.258 NA
ATOM     31  C   UNK A   0       2.635  21.212  22.594  0.00  0.00    +0.164 C 
ATOM     32  C   UNK A   0       2.530  22.301  23.468  0.00  0.00    +0.101 C 
ATOM     33  N   UNK A   0       3.470  22.758  24.229  0.00  0.00    -0.216 NA
ATOM     34  C   UNK A   0       4.598  22.041  24.085  0.00  0.00    +0.237 C 
ATOM     35  H   UNK A   0       8.551  21.889  25.696  0.00  0.00    +0.000 HD
ATOM     36  H   UNK A   0       7.525  23.156  26.196  0.00  0.00    +0.000 HD
ATOM     37  H   UNK A   0       7.815  20.265  24.141  0.00  0.00    +0.000 HD
ATOM     38  H   UNK A   0       5.517  18.800  21.983  0.00  0.00    +0.000 HD
ATOM     39  H   UNK A   0       7.096  18.704  22.617  0.00  0.00    +0.000 HD
ENDBRANCH  22  31
ENDBRANCH   1  22
TORSDOF 9
ENDMDL
MODEL 8
REMARK VINA RESULT:    -8.398      4.451      9.030
REMARK INTER + INTRA:         -13.470
REMARK INTER:                 -12.498
REMARK INTRA:                  -0.972
REMARK UNBOUND:                -0.653
REMARK  Name = /mnt/c/Personal/tickdock/data/docking/counterdock_calibration/1RG7_lig_raw.pdb
REMARK  10 active torsions:
REMARK  status: ('A' for Active; 'I' for Inactive)
REMARK    1  A    between atoms: C_9  and  C_13
REMARK    2  A    between atoms: C_13  and  N_14
REMARK    3  A    between atoms: N_14  and  C_15
REMARK    4  A    between atoms: N_14  and  C_19
REMARK    5  A    between atoms: C_16  and  C_22
REMARK    6  A    between atoms: N_24  and  CA_25
REMARK    7  A    between atoms: CA_25  and  C_26
REMARK    8  A    between atoms: CA_25  and  CB_29
REMARK    9  A    between atoms: CB_29  and  CG_30
REMARK   10  A    between atoms: CG_30  and  CD_31
REMARK                            x       y       z     vdW  Elec       q    Type
REMARK                         _______ _______ _______ _____ _____    ______ ____
ROOT
ATOM      1  N   UNK A   0      -5.046  19.160  21.745  0.00  0.00    -0.304 N 
ATOM      2  C   UNK A   0      -5.361  19.253  20.296  0.00  0.00    +0.112 C 
ENDROOT
BRANCH   1   6
ATOM      3  C   UNK A   0      -1.147  19.782  23.099  0.00  0.00    +0.055 A 
ATOM      4  C   UNK A   0      -1.704  20.532  21.996  0.00  0.00    +0.006 A 
ATOM      5  C   UNK A   0      -2.991  20.291  21.586  0.00  0.00    +0.015 A 
ATOM      6  C   UNK A   0      -3.744  19.314  22.257  0.00  0.00    +0.048 A 
ATOM      7  C   UNK A   0      -3.238  18.597  23.318  0.00  0.00    +0.015 A 
ATOM      8  C   UNK A   0      -1.915  18.831  23.759  0.00  0.00    +0.006 A 
BRANCH   3   9
ATOM      9  C   UNK A   0       0.171  19.989  23.592  0.00  0.00    +0.265 C 
ATOM     10  O   UNK A   0       0.798  19.148  24.265  0.00  0.00    -0.268 OA
ATOM     11  N   GLU A   1       0.843  20.996  23.113  0.00  0.00    -0.192 N 
ATOM     12  H   GLU A   1       0.530  21.496  22.324  0.00  0.00    +0.000 HD
BRANCH  11  13
ATOM     13  CA  GLU A   1       2.115  21.358  23.816  0.00  0.00    +0.199 C 
BRANCH  13  14
ATOM     14  C   GLU A   1       2.202  22.808  24.135  0.00  0.00    +0.384 C 
ATOM     15  OXT GLU A   1       3.131  23.487  23.633  0.00  0.00    -0.244 OA
ATOM     16  O   GLU A   1       1.352  23.228  24.984  0.00  0.00    -0.244 OA
ENDBRANCH  13  14
BRANCH  13  17
ATOM     17  CB  GLU A   1       3.256  21.212  22.801  0.00  0.00    +0.045 C 
BRANCH  17  18
ATOM     18  CG  GLU A   1       3.977  19.815  23.037  0.00  0.00    +0.116 C 
BRANCH  18  19
ATOM     19  CD  GLU A   1       5.410  20.131  23.464  0.00  0.00    +0.365 C 
ATOM     20  OE1 GLU A   1       6.106  19.063  23.467  0.00  0.00    -0.246 OA
ATOM     21  OE2 GLU A   1       5.768  21.326  23.631  0.00  0.00    -0.246 OA
ENDBRANCH  18  19
ENDBRANCH  17  18
ENDBRANCH  13  17
ENDBRANCH  11  13
ENDBRANCH   3   9
ENDBRANCH   1   6
BRANCH   1  22
ATOM     22  C   UNK A   0      -6.150  18.783  22.640  0.00  0.00    +0.121 C 
BRANCH  22  31
ATOM     23  N   UNK A   0      -8.134  23.087  25.300  0.00  0.00    -0.348 NA
ATOM     24  C   UNK A   0      -7.816  24.303  24.938  0.00  0.00    +0.302 C 
ATOM     25  N   UNK A   0      -8.312  25.282  25.580  0.00  0.00    -0.076 N 
ATOM     26  N   UNK A   0      -6.942  24.498  23.813  0.00  0.00    -0.145 N 
ATOM     27  C   UNK A   0      -6.411  23.495  23.081  0.00  0.00    +0.198 C 
ATOM     28  N   UNK A   0      -5.629  23.726  22.083  0.00  0.00    -0.128 N 
ATOM     29  C   UNK A   0      -6.824  22.166  23.517  0.00  0.00    +0.160 C 
ATOM     30  N   UNK A   0      -6.353  21.145  22.856  0.00  0.00    -0.258 NA
ATOM     31  C   UNK A   0      -6.705  19.938  23.347  0.00  0.00    +0.164 C 
ATOM     32  C   UNK A   0      -7.516  19.851  24.485  0.00  0.00    +0.101 C 
ATOM     33  N   UNK A   0      -8.006  20.848  25.147  0.00  0.00    -0.216 NA
ATOM     34  C   UNK A   0      -7.632  22.019  24.601  0.00  0.00    +0.237 C 
ATOM     35  H   UNK A   0      -8.085  26.205  25.323  0.00  0.00    +0.000 HD
ATOM     36  H   UNK A   0      -8.924  25.117  26.334  0.00  0.00    +0.000 HD
ATOM     37  H   UNK A   0      -6.717  25.423  23.559  0.00  0.00    +0.000 HD
ATOM     38  H   UNK A   0      -5.256  22.976  21.567  0.00  0.00    +0.000 HD
ATOM     39  H   UNK A   0      -5.406  24.652  21.837  0.00  0.00    +0.000 HD
ENDBRANCH  22  31
ENDBRANCH   1  22
TORSDOF 9
ENDMDL
MODEL 9
REMARK VINA RESULT:    -8.245      4.293      9.030
REMARK INTER + INTRA:         -13.236
REMARK INTER:                 -12.243
REMARK INTRA:                  -0.993
REMARK UNBOUND:                -0.653
REMARK  Name = /mnt/c/Personal/tickdock/data/docking/counterdock_calibration/1RG7_lig_raw.pdb
REMARK  10 active torsions:
REMARK  status: ('A' for Active; 'I' for Inactive)
REMARK    1  A    between atoms: C_9  and  C_13
REMARK    2  A    between atoms: C_13  and  N_14
REMARK    3  A    between atoms: N_14  and  C_15
REMARK    4  A    between atoms: N_14  and  C_19
REMARK    5  A    between atoms: C_16  and  C_22
REMARK    6  A    between atoms: N_24  and  CA_25
REMARK    7  A    between atoms: CA_25  and  C_26
REMARK    8  A    between atoms: CA_25  and  CB_29
REMARK    9  A    between atoms: CB_29  and  CG_30
REMARK   10  A    between atoms: CG_30  and  CD_31
REMARK                            x       y       z     vdW  Elec       q    Type
REMARK                         _______ _______ _______ _____ _____    ______ ____
ROOT
ATOM      1  N   UNK A   0      -3.783  19.316  22.583  0.00  0.00    -0.304 N 
ATOM      2  C   UNK A   0      -4.189  18.458  23.727  0.00  0.00    +0.112 C 
ENDROOT
BRANCH   1   6
ATOM      3  C   UNK A   0       0.195  20.522  22.212  0.00  0.00    +0.055 A 
ATOM      4  C   UNK A   0      -0.265  19.734  23.332  0.00  0.00    +0.006 A 
ATOM      5  C   UNK A   0      -1.584  19.362  23.412  0.00  0.00    +0.015 A 
ATOM      6  C   UNK A   0      -2.461  19.758  22.390  0.00  0.00    +0.048 A 
ATOM      7  C   UNK A   0      -2.042  20.497  21.307  0.00  0.00    +0.015 A 
ATOM      8  C   UNK A   0      -0.687  20.889  21.204  0.00  0.00    +0.006 A 
BRANCH   3   9
ATOM      9  C   UNK A   0       1.549  20.929  22.052  0.00  0.00    +0.265 C 
ATOM     10  O   UNK A   0       2.055  21.234  20.955  0.00  0.00    -0.268 OA
ATOM     11  N   GLU A   1       2.218  21.234  23.127  0.00  0.00    -0.192 N 
ATOM     12  H   GLU A   1       1.772  21.345  23.997  0.00  0.00    +0.000 HD
BRANCH  11  13
ATOM     13  CA  GLU A   1       3.698  21.407  22.977  0.00  0.00    +0.199 C 
BRANCH  13  14
ATOM     14  C   GLU A   1       4.453  20.154  23.243  0.00  0.00    +0.384 C 
ATOM     15  OXT GLU A   1       3.845  19.057  23.201  0.00  0.00    -0.244 OA
ATOM     16  O   GLU A   1       5.668  20.315  23.587  0.00  0.00    -0.244 OA
ENDBRANCH  13  14
BRANCH  13  17
ATOM     17  CB  GLU A   1       4.175  22.290  24.138  0.00  0.00    +0.045 C 
BRANCH  17  18
ATOM     18  CG  GLU A   1       3.769  23.797  23.838  0.00  0.00    +0.116 C 
BRANCH  18  19
ATOM     19  CD  GLU A   1       2.751  24.196  24.907  0.00  0.00    +0.365 C 
ATOM     20  OE1 GLU A   1       3.215  25.151  25.610  0.00  0.00    -0.246 OA
ATOM     21  OE2 GLU A   1       1.604  23.678  24.907  0.00  0.00    -0.246 OA
ENDBRANCH  18  19
ENDBRANCH  17  18
ENDBRANCH  13  17
ENDBRANCH  11  13
ENDBRANCH   3   9
ENDBRANCH   1   6
BRANCH   1  22
ATOM     22  C   UNK A   0      -4.857  19.791  21.698  0.00  0.00    +0.121 C 
BRANCH  22  31
ATOM     23  N   UNK A   0      -7.297  24.285  23.539  0.00  0.00    -0.348 NA
ATOM     24  C   UNK A   0      -8.560  24.271  23.876  0.00  0.00    +0.302 C 
ATOM     25  N   UNK A   0      -9.088  25.341  24.314  0.00  0.00    -0.076 N 
ATOM     26  N   UNK A   0      -9.305  23.045  23.770  0.00  0.00    -0.145 N 
ATOM     27  C   UNK A   0      -8.785  21.876  23.338  0.00  0.00    +0.198 C 
ATOM     28  N   UNK A   0      -9.499  20.806  23.260  0.00  0.00    -0.128 N 
ATOM     29  C   UNK A   0      -7.367  21.950  23.004  0.00  0.00    +0.160 C 
ATOM     30  N   UNK A   0      -6.793  20.858  22.581  0.00  0.00    -0.258 NA
ATOM     31  C   UNK A   0      -5.502  20.999  22.213  0.00  0.00    +0.164 C 
ATOM     32  C   UNK A   0      -4.880  22.250  22.300  0.00  0.00    +0.101 C 
ATOM     33  N   UNK A   0      -5.424  23.341  22.729  0.00  0.00    -0.216 NA
ATOM     34  C   UNK A   0      -6.702  23.133  23.093  0.00  0.00    +0.237 C 
ATOM     35  H   UNK A   0     -10.038  25.352  24.573  0.00  0.00    +0.000 HD
ATOM     36  H   UNK A   0      -8.548  26.160  24.394  0.00  0.00    +0.000 HD
ATOM     37  H   UNK A   0     -10.255  23.059  24.030  0.00  0.00    +0.000 HD
ATOM     38  H   UNK A   0      -9.095  19.967  22.942  0.00  0.00    +0.000 HD
ATOM     39  H   UNK A   0     -10.448  20.828  23.518  0.00  0.00    +0.000 HD
ENDBRANCH  22  31
ENDBRANCH   1  22
TORSDOF 9
ENDMDL
