REMARK  Name = /mnt/c/Personal/tickdock/data/docking/counterdock_calibration/2BL9_lig_raw.pdb
REMARK  4 active torsions:
REMARK  status: ('A' for Active; 'I' for Inactive)
REMARK    1  A    between atoms: C3_3  and  N13_13
REMARK    2  A    between atoms: C4_4  and  C7_7
REMARK    3  A    between atoms: C5_5  and  C15_15
REMARK    4  A    between atoms: C15_15  and  C16_16
REMARK                            x       y       z     vdW  Elec       q    Type
REMARK                         _______ _______ _______ _____ _____    ______ ____
ROOT
ATOM      1  N1  CP6 A1240      88.759  12.707  31.072  0.00  0.00    -0.193 NA
ATOM      2  C2  CP6 A1240      89.754  13.569  30.651  0.00  0.00    +0.258 A 
ATOM      3  C3  CP6 A1240      88.688  12.355  32.447  0.00  0.00    +0.174 A 
ATOM      4  C4  CP6 A1240      89.661  12.869  33.451  0.00  0.00    +0.049 A 
ATOM      5  C5  CP6 A1240      90.672  13.809  32.846  0.00  0.00    +0.065 A 
ATOM      6  N6  CP6 A1240      90.693  14.127  31.513  0.00  0.00    -0.215 NA
ATOM      7  N14 CP6 A1240      89.839  13.899  29.292  0.00  0.00    -0.086 N 
ATOM      8  H   CP6 A1240      89.192  13.523  28.653  0.00  0.00    +0.000 HD
ATOM      9  H   CP6 A1240      90.546  14.507  28.976  0.00  0.00    +0.000 HD
ENDROOT
BRANCH   4  10
ATOM     10  C7  CP6 A1240      89.630  12.493  34.872  0.00  0.00    +0.004 A 
ATOM     11  C8  CP6 A1240      88.516  12.878  35.751  0.00  0.00    +0.001 A 
ATOM     12  C9  CP6 A1240      88.448  12.510  37.144  0.00  0.00    +0.011 A 
ATOM     13  C10 CP6 A1240      89.470  11.760  37.706  0.00  0.00    +0.058 A 
ATOM     14  C11 CP6 A1240      90.614  11.335  36.874  0.00  0.00    +0.011 A 
ATOM     15  C12 CP6 A1240      90.660  11.712  35.483  0.00  0.00    +0.001 A 
ATOM     16 CL1  CP6 A1240      89.483  11.316  39.294  0.00  0.00    -0.082 Cl
ENDBRANCH   4  10
BRANCH   3  17
ATOM     17  N13 CP6 A1240      87.730  11.532  32.872  0.00  0.00    -0.107 N 
ATOM     18  H   CP6 A1240      87.070  11.174  32.235  0.00  0.00    +0.000 HD
ATOM     19  H   CP6 A1240      87.682  11.282  33.823  0.00  0.00    +0.000 HD
ENDBRANCH   3  17
BRANCH   5  20
ATOM     20  C15 CP6 A1240      91.722  14.446  33.725  0.00  0.00    +0.046 C 
ATOM     21  C16 CP6 A1240      91.538  15.935  33.982  0.00  0.00    +0.007 C 
ENDBRANCH   5  20
TORSDOF 3
