REMARK  Name = /mnt/c/Personal/tickdock/data/docking/counterdock_calibration/2W3A_protein.pdb
REMARK                            x       y       z     vdW  Elec       q    Type
REMARK                         _______ _______ _______ _____ _____    ______ ____
ATOM      1  N   VAL A   1      -9.521  10.415   5.208  0.00  0.00    -0.123 N 
ATOM      2  CA  VAL A   1      -9.174  11.153   3.951  0.00  0.00    +0.169 C 
ATOM      3  C   VAL A   1      -8.386  10.240   3.012  0.00  0.00    +0.259 C 
ATOM      4  O   VAL A   1      -7.322   9.734   3.380  0.00  0.00    -0.272 OA
ATOM      5  CB  VAL A   1      -8.371  12.435   4.253  0.00  0.00    +0.027 C 
ATOM      6  CG1 VAL A   1      -7.793  13.032   2.978  0.00  0.00    +0.002 C 
ATOM      7  CG2 VAL A   1      -9.259  13.452   4.954  0.00  0.00    +0.002 C 
ATOM      8  N   GLY A   2      -8.905  10.047   1.799  0.00  0.00    -0.194 N 
ATOM      9  CA  GLY A   2      -8.374   9.044   0.872  0.00  0.00    +0.201 C 
ATOM     10  C   GLY A   2      -7.337   9.567  -0.099  0.00  0.00    +0.264 C 
ATOM     11  O   GLY A   2      -6.802   8.815  -0.916  0.00  0.00    -0.271 OA
ATOM     12  N   UNK A   3      -7.057  10.863  -0.029  0.00  0.00    -0.194 N 
ATOM     13  C   UNK A   3      -6.163  11.493  -0.984  0.00  0.00    +0.205 C 
ATOM     14  C   UNK A   3      -5.688  12.836  -0.446  0.00  0.00    +0.264 C 
ATOM     15  O   UNK A   3      -6.455  13.561   0.213  0.00  0.00    -0.271 OA
ATOM     16  C   UNK A   3      -6.861  11.716  -2.316  0.00  0.00    +0.213 C 
ATOM     17  O   UNK A   3      -5.942  12.187  -3.271  0.00  0.00    -0.218 OA
ATOM     18  N   UNK A   3      -4.421  13.157  -0.717  0.00  0.00    -0.196 N 
ATOM     19  C   UNK A   3      -3.881  14.473  -0.433  0.00  0.00    +0.173 C 
ATOM     20  C   UNK A   3      -3.368  15.118  -1.722  0.00  0.00    +0.262 C 
ATOM     21  O   UNK A   3      -3.014  14.411  -2.656  0.00  0.00    -0.271 OA
ATOM     22  C   UNK A   3      -2.706  14.359   0.553  0.00  0.00    +0.031 C 
ATOM     23  C   UNK A   3      -2.954  13.661   1.869  0.00  0.00    +0.002 C 
ATOM     24  C   UNK A   3      -1.646  13.421   2.597  0.00  0.00    +0.000 C 
ATOM     25  C   UNK A   3      -3.910  14.513   2.706  0.00  0.00    +0.000 C 
ATOM     26  N   UNK A   3      -3.287  16.455  -1.745  0.00  0.00    -0.196 N 
ATOM     27  C   UNK A   3      -2.606  17.175  -2.817  0.00  0.00    +0.182 C 
ATOM     28  C   UNK A   3      -1.534  18.060  -2.192  0.00  0.00    +0.262 C 
ATOM     29  O   UNK A   3      -1.791  18.648  -1.145  0.00  0.00    -0.271 OA
ATOM     30  C   UNK A   3      -3.596  18.054  -3.580  0.00  0.00    +0.120 C 
ATOM     31  C   UNK A   3      -4.798  17.283  -4.052  0.00  0.00    +0.263 C 
ATOM     32  O   UNK A   3      -4.758  16.598  -5.083  0.00  0.00    -0.272 OA
ATOM     33  N   UNK A   3      -5.880  17.373  -3.294  0.00  0.00    -0.088 N 
ATOM     34  N   UNK A   3      -0.347  18.122  -2.815  0.00  0.00    -0.195 N 
ATOM     35  C   UNK A   3       0.646  19.171  -2.529  0.00  0.00    +0.184 C 
ATOM     36  C   UNK A   3       0.719  20.126  -3.704  0.00  0.00    +0.263 C 
ATOM     37  O   UNK A   3       0.564  19.701  -4.845  0.00  0.00    -0.271 OA
ATOM     38  C   UNK A   3       2.060  18.613  -2.306  0.00  0.00    +0.100 C 
ATOM     39  S   UNK A   3       2.244  17.512  -0.869  0.00  0.00    -0.080 S 
ATOM     40  N   UNK A   3       1.011  21.392  -3.419  0.00  0.00    -0.196 N 
ATOM     41  C   UNK A   3       1.223  22.397  -4.458  0.00  0.00    +0.173 C 
ATOM     42  C   UNK A   3       2.394  23.301  -4.110  0.00  0.00    +0.262 C 
ATOM     43  O   UNK A   3       2.498  23.784  -3.001  0.00  0.00    -0.271 OA
ATOM     44  C   UNK A   3      -0.069  23.216  -4.754  0.00  0.00    +0.029 C 
ATOM     45  C   UNK A   3       0.108  24.094  -5.998  0.00  0.00    +0.002 C 
ATOM     46  C   UNK A   3      -0.572  23.988  -3.539  0.00  0.00    +0.002 C 
ATOM     47  C   UNK A   3      -1.244  24.611  -6.622  0.00  0.00    +0.000 C 
ATOM     48  N   UNK A   3       3.292  23.476  -5.081  0.00  0.00    -0.196 N 
ATOM     49  C   UNK A   3       4.544  24.193  -4.894  0.00  0.00    +0.173 C 
ATOM     50  C   UNK A   3       5.002  24.787  -6.211  0.00  0.00    +0.261 C 
ATOM     51  O   UNK A   3       4.628  24.274  -7.282  0.00  0.00    -0.271 OA
ATOM     52  C   UNK A   3       5.666  23.245  -4.343  0.00  0.00    +0.029 C 
ATOM     53  C   UNK A   3       6.156  22.277  -5.422  0.00  0.00    +0.002 C 
ATOM     54  C   UNK A   3       6.874  23.994  -3.744  0.00  0.00    +0.002 C 
ATOM     55  N   UNK A   3       5.798  25.864  -6.111  0.00  0.00    -0.204 N 
ATOM     56  C   UNK A   3       6.571  26.407  -7.229  0.00  0.00    +0.115 C 
ATOM     57  C   UNK A   3       6.163  27.854  -7.540  0.00  0.00    +0.025 C 
ATOM     58  H   VAL A   1     -10.050   9.575   4.974  0.00  0.00    +0.000 HD
ATOM     59  H   VAL A   1     -10.085  11.015   5.810  0.00  0.00    +0.000 HD
ATOM     60  H   VAL A   1      -8.664  10.153   5.696  0.00  0.00    +0.000 HD
ATOM     61  H   GLY A   2      -9.671  10.597   1.517  0.00  0.00    +0.000 HD
ATOM     62  H   UNK A   3      -7.463  11.407   0.684  0.00  0.00    +0.000 HD
ATOM     63  H   UNK A   3      -5.237  11.532  -3.392  0.00  0.00    +0.000 HD
ATOM     64  H   UNK A   3      -3.834  12.479  -1.123  0.00  0.00    +0.000 HD
ATOM     65  H   UNK A   3      -3.701  16.969  -1.014  0.00  0.00    +0.000 HD
ATOM     66  H   UNK A   3      -6.700  16.892  -3.548  0.00  0.00    +0.000 HD
ATOM     67  H   UNK A   3      -5.864  17.921  -2.476  0.00  0.00    +0.000 HD
ATOM     68  H   UNK A   3      -0.131  17.439  -3.490  0.00  0.00    +0.000 HD
ATOM     69  H   UNK A   3       1.976  18.205   0.270  0.00  0.00    +0.000 HD
ATOM     70  H   UNK A   3       1.087  21.661  -2.475  0.00  0.00    +0.000 HD
ATOM     71  H   UNK A   3       3.097  23.101  -5.970  0.00  0.00    +0.000 HD
ATOM     72  H   UNK A   3       5.865  26.313  -5.237  0.00  0.00    +0.000 HD
TER 
REMARK  Name = /mnt/c/Personal/tickdock/data/docking/counterdock_calibration/2W3A_protein.pdb
REMARK                            x       y       z     vdW  Elec       q    Type
REMARK                         _______ _______ _______ _____ _____    ______ ____
ATOM      1  C   UNL     1       8.067  26.342  -6.835  0.00  0.00    +0.320 C 
ATOM      2  O   UNL     1       8.432  26.697  -5.702  0.00  0.00    -0.263 OA
ATOM      3  N   UNL     1       8.907  25.885  -7.765  0.00  0.00    -0.196 N 
ATOM      4  C   UNL     1      10.317  25.568  -7.471  0.00  0.00    +0.139 C 
ATOM      5  H   UNL     1       8.573  25.754  -8.682  0.00  0.00    +0.000 HD
TER 
REMARK  Name = /mnt/c/Personal/tickdock/data/docking/counterdock_calibration/2W3A_protein.pdb
REMARK                            x       y       z     vdW  Elec       q    Type
REMARK                         _______ _______ _______ _____ _____    ______ ____
ATOM      1  N   UNL     2       8.902  25.866  -7.763  0.00  0.00    +0.000 N 
ATOM      2  H   UNL     2       9.922  25.866  -7.763  0.00  0.00    +0.000 HD
ATOM      3  H   UNL     2       8.562  26.782  -7.471  0.00  0.00    +0.000 HD
ATOM      4  H   UNL     2       8.562  25.155  -7.116  0.00  0.00    +0.000 HD
ATOM      5  H   UNL     2       8.562  25.661  -8.703  0.00  0.00    +0.000 HD
TER 
REMARK  Name = /mnt/c/Personal/tickdock/data/docking/counterdock_calibration/2W3A_protein.pdb
REMARK                            x       y       z     vdW  Elec       q    Type
REMARK                         _______ _______ _______ _____ _____    ______ ____
ATOM      1  C   UNL     3      10.313  25.558  -7.458  0.00  0.00    +0.000 C 
TER 
REMARK  Name = /mnt/c/Personal/tickdock/data/docking/counterdock_calibration/2W3A_protein.pdb
REMARK                            x       y       z     vdW  Elec       q    Type
REMARK                         _______ _______ _______ _____ _____    ______ ____
ATOM      1  C   UNL     3      11.245  25.986  -8.586  0.00  0.00    +0.279 C 
ATOM      2  O   UNL     3      10.978  25.720  -9.757  0.00  0.00    -0.279 OA
TER 
REMARK  Name = /mnt/c/Personal/tickdock/data/docking/counterdock_calibration/2W3A_protein.pdb
REMARK                            x       y       z     vdW  Elec       q    Type
REMARK                         _______ _______ _______ _____ _____    ______ ____
ATOM      1  C   UNL     4      11.217  26.051  -8.594  0.00  0.00    +0.279 C 
ATOM      2  O   UNL     4      10.894  25.904  -9.768  0.00  0.00    -0.279 OA
TER 
REMARK  Name = /mnt/c/Personal/tickdock/data/docking/counterdock_calibration/2W3A_protein.pdb
REMARK                            x       y       z     vdW  Elec       q    Type
REMARK                         _______ _______ _______ _____ _____    ______ ____
ATOM      1  C   UNL     5      10.502  24.037  -7.218  0.00  0.00    +0.000 C 
ATOM      2  C   UNL     5       9.914  23.618  -5.875  0.00  0.00    +0.000 C 
TER 
REMARK  Name = /mnt/c/Personal/tickdock/data/docking/counterdock_calibration/2W3A_protein.pdb
REMARK                            x       y       z     vdW  Elec       q    Type
REMARK                         _______ _______ _______ _____ _____    ______ ____
ATOM      1  C   UNL     4      10.550  24.047  -7.267  0.00  0.00    +0.000 C 
ATOM      2  C   UNL     4      10.358  23.248  -8.589  0.00  0.00    +0.000 C 
ATOM      3  C   UNL     4       9.849  23.215  -8.335  0.00  0.00    +0.000 C 
ATOM      4  C   UNL     4      11.915  23.784  -6.667  0.00  0.00    +0.000 C 
TER 
REMARK  Name = /mnt/c/Personal/tickdock/data/docking/counterdock_calibration/2W3A_protein.pdb
REMARK                            x       y       z     vdW  Elec       q    Type
REMARK                         _______ _______ _______ _____ _____    ______ ____
ATOM      1  N   UNL     5      12.360  26.614  -8.222  0.00  0.00    -0.120 N 
ATOM      2  CA  UNL     5      13.371  27.044  -9.211  0.00  0.00    +0.202 C 
ATOM      3  C   UNL     5      14.199  25.834  -9.695  0.00  0.00    +0.262 C 
ATOM      4  O   UNL     5      14.090  24.741  -9.168  0.00  0.00    -0.272 OA
ATOM      5  C   UNL     5      14.264  28.134  -8.614  0.00  0.00    +0.210 C 
ATOM      6  O   UNL     5      15.038  27.589  -7.570  0.00  0.00    -0.218 OA
ATOM      7  N   UNL     5      15.025  26.051 -10.715  0.00  0.00    -0.196 N 
ATOM      8  C   UNL     5      15.840  24.985 -11.314  0.00  0.00    +0.173 C 
ATOM      9  C   UNL     5      16.787  24.345 -10.279  0.00  0.00    +0.262 C 
ATOM     10  O   UNL     5      17.046  23.115 -10.312  0.00  0.00    -0.271 OA
ATOM     11  C   UNL     5      16.572  25.615 -12.489  0.00  0.00    +0.041 C 
ATOM     12  C   UNL     5      17.500  24.772 -13.312  0.00  0.00    +0.091 C 
ATOM     13  C   UNL     5      18.051  25.606 -14.457  0.00  0.00    +0.261 C 
ATOM     14  O   UNL     5      17.278  26.168 -15.230  0.00  0.00    -0.272 OA
ATOM     15  N   UNL     5      19.374  25.734 -14.542  0.00  0.00    -0.088 N 
ATOM     16  N   UNL     5      17.289  25.166  -9.353  0.00  0.00    -0.196 N 
ATOM     17  C   UNL     5      18.119  24.709  -8.217  0.00  0.00    +0.182 C 
ATOM     18  C   UNL     5      17.334  24.206  -6.972  0.00  0.00    +0.262 C 
ATOM     19  O   UNL     5      17.883  24.089  -5.855  0.00  0.00    -0.271 OA
ATOM     20  C   UNL     5      19.157  25.795  -7.835  0.00  0.00    +0.120 C 
ATOM     21  C   UNL     5      18.530  27.176  -7.525  0.00  0.00    +0.263 C 
ATOM     22  O   UNL     5      17.628  27.650  -8.237  0.00  0.00    -0.272 OA
ATOM     23  N   UNL     5      19.057  27.850  -6.485  0.00  0.00    -0.088 N 
ATOM     24  N   UNL     5      16.056  23.882  -7.187  0.00  0.00    -0.196 N 
ATOM     25  C   UNL     5      15.116  23.380  -6.170  0.00  0.00    +0.174 C 
ATOM     26  C   UNL     5      14.746  24.361  -5.055  0.00  0.00    +0.262 C 
ATOM     27  O   UNL     5      14.269  23.950  -4.001  0.00  0.00    -0.271 OA
ATOM     28  C   UNL     5      15.617  22.055  -5.571  0.00  0.00    +0.043 C 
ATOM     29  C   UNL     5      15.871  20.977  -6.622  0.00  0.00    +0.060 C 
ATOM     30  S   UNL     5      14.417  20.518  -7.581  0.00  0.00    -0.139 S 
ATOM     31  C   UNL     5      13.355  19.853  -6.312  0.00  0.00    +0.069 C 
ATOM     32  N   UNL     5      14.955  25.655  -5.285  0.00  0.00    -0.194 N 
ATOM     33  C   UNL     5      14.616  26.676  -4.317  0.00  0.00    +0.201 C 
ATOM     34  C   UNL     5      13.120  26.968  -4.245  0.00  0.00    +0.264 C 
ATOM     35  O   UNL     5      12.446  27.001  -5.276  0.00  0.00    -0.271 OA
ATOM     36  N   UNL     5      12.622  27.171  -3.029  0.00  0.00    -0.196 N 
ATOM     37  C   UNL     5      11.226  27.593  -2.789  0.00  0.00    +0.173 C 
ATOM     38  C   UNL     5      11.070  28.842  -1.945  0.00  0.00    +0.262 C 
ATOM     39  O   UNL     5       9.995  29.445  -1.938  0.00  0.00    -0.271 OA
ATOM     40  C   UNL     5      10.335  26.477  -2.218  0.00  0.00    +0.029 C 
ATOM     41  C   UNL     5      10.778  26.077  -0.810  0.00  0.00    +0.002 C 
ATOM     42  C   UNL     5      10.367  25.279  -3.127  0.00  0.00    +0.002 C 
ATOM     43  C   UNL     5       9.879  25.010  -0.186  0.00  0.00    +0.000 C 
ATOM     44  N   UNL     5      12.133  29.294  -1.296  0.00  0.00    -0.194 N 
ATOM     45  C   UNL     5      12.027  30.499  -0.502  0.00  0.00    +0.201 C 
ATOM     46  C   UNL     5      13.353  31.200  -0.357  0.00  0.00    +0.264 C 
ATOM     47  O   UNL     5      14.411  30.590  -0.521  0.00  0.00    -0.271 OA
ATOM     48  N   UNL     5      13.281  32.490  -0.069  0.00  0.00    -0.196 N 
ATOM     49  C   UNL     5      14.465  33.308   0.249  0.00  0.00    +0.173 C 
ATOM     50  C   UNL     5      13.998  34.445   1.157  0.00  0.00    +0.262 C 
ATOM     51  O   UNL     5      13.088  35.210   0.796  0.00  0.00    -0.271 OA
ATOM     52  C   UNL     5      15.110  33.845  -1.036  0.00  0.00    +0.031 C 
ATOM     53  C   UNL     5      16.324  34.744  -0.880  0.00  0.00    +0.004 C 
ATOM     54  C   UNL     5      17.556  34.022  -0.423  0.00  0.00    +0.021 C 
ATOM     55  C   UNL     5      18.812  34.838  -0.755  0.00  0.00    +0.109 C 
ATOM     56  N   UNL     5      18.672  36.297  -0.589  0.00  0.00    -0.131 N 
ATOM     57  N   UNL     5      14.591  34.553   2.340  0.00  0.00    -0.196 N 
ATOM     58  C   UNL     5      14.302  35.661   3.256  0.00  0.00    +0.182 C 
ATOM     59  C   UNL     5      12.808  35.792   3.624  0.00  0.00    +0.262 C 
ATOM     60  O   UNL     5      12.288  36.890   3.776  0.00  0.00    -0.271 OA
ATOM     61  C   UNL     5      14.852  36.978   2.662  0.00  0.00    +0.120 C 
ATOM     62  C   UNL     5      16.383  37.012   2.602  0.00  0.00    +0.263 C 
ATOM     63  O   UNL     5      17.057  36.263   3.310  0.00  0.00    -0.272 OA
ATOM     64  N   UNL     5      16.936  37.885   1.757  0.00  0.00    -0.088 N 
ATOM     65  N   UNL     5      12.124  34.669   3.784  0.00  0.00    -0.194 N 
ATOM     66  C   UNL     5      10.709  34.685   4.155  0.00  0.00    +0.201 C 
ATOM     67  C   UNL     5       9.710  35.025   3.049  0.00  0.00    +0.264 C 
ATOM     68  O   UNL     5       8.540  35.329   3.349  0.00  0.00    -0.271 OA
ATOM     69  N   UNL     5      10.145  34.954   1.787  0.00  0.00    -0.196 N 
ATOM     70  C   UNL     5       9.310  35.291   0.601  0.00  0.00    +0.184 C 
ATOM     71  C   UNL     5       9.762  34.398  -0.558  0.00  0.00    +0.262 C 
ATOM     72  O   UNL     5      10.600  33.509  -0.360  0.00  0.00    -0.271 OA
ATOM     73  C   UNL     5       9.513  36.772   0.240  0.00  0.00    +0.145 C 
ATOM     74  C   UNL     5       8.346  37.393  -0.568  0.00  0.00    +0.367 C 
ATOM     75  O   UNL     5       7.609  36.700  -1.317  0.00  0.00    -0.246 OA
ATOM     76  O   UNL     5       8.202  38.639  -0.473  0.00  0.00    -0.246 OA
ATOM     77  N   UNL     5       9.205  34.594  -1.752  0.00  0.00    -0.196 N 
ATOM     78  C   UNL     5       9.611  33.819  -2.932  0.00  0.00    +0.171 C 
ATOM     79  C   UNL     5      10.978  34.266  -3.451  0.00  0.00    +0.246 C 
ATOM     80  O   UNL     5      11.351  35.433  -3.288  0.00  0.00    -0.273 OA
ATOM     81  C   UNL     5       8.587  33.942  -4.051  0.00  0.00    +0.031 C 
ATOM     82  C   UNL     5       7.169  33.523  -3.657  0.00  0.00    +0.002 C 
ATOM     83  C   UNL     5       6.160  33.932  -4.733  0.00  0.00    +0.000 C 
ATOM     84  C   UNL     5       7.085  32.025  -3.380  0.00  0.00    +0.000 C 
ATOM     85  N   UNL     5      11.760  33.329  -4.029  0.00  0.00    -0.272 N 
ATOM     86  C   UNL     5      13.051  33.720  -4.626  0.00  0.00    +0.154 C 
ATOM     87  C   UNL     5      12.984  34.571  -5.902  0.00  0.00    +0.260 C 
ATOM     88  O   UNL     5      13.942  35.273  -6.224  0.00  0.00    -0.272 OA
ATOM     89  C   UNL     5      13.720  32.365  -4.942  0.00  0.00    +0.031 C 
ATOM     90  C   UNL     5      13.017  31.364  -4.071  0.00  0.00    +0.024 C 
ATOM     91  C   UNL     5      11.595  31.867  -4.028  0.00  0.00    +0.094 C 
ATOM     92  N   UNL     5      11.845  34.531  -6.590  0.00  0.00    -0.196 N 
ATOM     93  C   UNL     5      11.614  35.211  -7.852  0.00  0.00    +0.175 C 
ATOM     94  C   UNL     5      10.573  36.299  -7.667  0.00  0.00    +0.246 C 
ATOM     95  O   UNL     5       9.827  36.290  -6.696  0.00  0.00    -0.273 OA
ATOM     96  C   UNL     5      11.128  34.207  -8.930  0.00  0.00    +0.055 C 
ATOM     97  C   UNL     5      10.079  33.236  -8.414  0.00  0.00    -0.014 C 
ATOM     98  C   UNL     5       8.727  33.417  -8.370  0.00  0.00    +0.091 C 
ATOM     99  C   UNL     5      10.326  31.963  -7.812  0.00  0.00    +0.082 C 
ATOM    100  N   UNL     5       8.112  32.314  -7.812  0.00  0.00    -0.248 NA
ATOM    101  C   UNL     5       9.080  31.413  -7.459  0.00  0.00    +0.066 C 
ATOM    102  C   UNL     5      11.486  31.213  -7.564  0.00  0.00    -0.016 C 
ATOM    103  C   UNL     5       8.970  30.176  -6.830  0.00  0.00    +0.015 C 
ATOM    104  C   UNL     5      11.363  29.977  -6.949  0.00  0.00    -0.004 C 
ATOM    105  C   UNL     5      10.119  29.471  -6.603  0.00  0.00    +0.001 C 
ATOM    106  N   UNL     5      10.513  37.253  -8.611  0.00  0.00    -0.272 N 
ATOM    107  C   UNL     5       9.496  38.306  -8.554  0.00  0.00    +0.152 C 
ATOM    108  C   UNL     5       8.080  37.731  -8.655  0.00  0.00    +0.244 C 
ATOM    109  O   UNL     5       7.903  36.626  -9.159  0.00  0.00    -0.273 OA
ATOM    110  C   UNL     5       9.824  39.179  -9.769  0.00  0.00    +0.031 C 
ATOM    111  C   UNL     5      11.225  38.842 -10.141  0.00  0.00    +0.024 C 
ATOM    112  C   UNL     5      11.407  37.400  -9.767  0.00  0.00    +0.094 C 
ATOM    113  N   UNL     5       7.067  38.480  -8.187  0.00  0.00    -0.272 N 
ATOM    114  C   UNL     5       5.702  37.990  -8.248  0.00  0.00    +0.154 C 
ATOM    115  C   UNL     5       5.216  37.661  -9.664  0.00  0.00    +0.260 C 
ATOM    116  O   UNL     5       5.314  38.502 -10.579  0.00  0.00    -0.272 OA
ATOM    117  C   UNL     5       4.882  39.131  -7.632  0.00  0.00    +0.031 C 
ATOM    118  C   UNL     5       5.793  39.936  -6.935  0.00  0.00    +0.024 C 
ATOM    119  C   UNL     5       7.132  39.810  -7.569  0.00  0.00    +0.094 C 
ATOM    120  N   UNL     5       4.704  36.443  -9.834  0.00  0.00    -0.196 N 
ATOM    121  C   UNL     5       4.141  36.001 -11.131  0.00  0.00    +0.173 C 
ATOM    122  C   UNL     5       2.634  35.869 -10.982  0.00  0.00    +0.262 C 
ATOM    123  O   UNL     5       2.138  34.933 -10.327  0.00  0.00    -0.271 OA
ATOM    124  C   UNL     5       4.780  34.701 -11.587  0.00  0.00    +0.031 C 
ATOM    125  C   UNL     5       6.306  34.663 -11.623  0.00  0.00    +0.002 C 
ATOM    126  C   UNL     5       6.761  33.240 -11.944  0.00  0.00    +0.000 C 
ATOM    127  C   UNL     5       6.834  35.676 -12.619  0.00  0.00    +0.000 C 
ATOM    128  N   UNL     5       1.908  36.817 -11.572  0.00  0.00    -0.196 N 
ATOM    129  C   UNL     5       0.492  36.997 -11.213  0.00  0.00    +0.173 C 
ATOM    130  C   UNL     5      -0.404  35.853 -11.658  0.00  0.00    +0.262 C 
ATOM    131  O   UNL     5      -1.271  35.411 -10.900  0.00  0.00    -0.271 OA
ATOM    132  C   UNL     5      -0.048  38.348 -11.713  0.00  0.00    +0.033 C 
ATOM    133  C   UNL     5       0.658  39.555 -11.110  0.00  0.00    +0.029 C 
ATOM    134  C   UNL     5       0.586  39.587  -9.561  0.00  0.00    +0.129 C 
ATOM    135  N   UNL     5       1.337  40.697  -8.990  0.00  0.00    -0.234 N 
ATOM    136  C   UNL     5       1.541  40.894  -7.689  0.00  0.00    +0.284 C 
ATOM    137  N   UNL     5       1.069  40.041  -6.783  0.00  0.00    -0.104 N 
ATOM    138  N   UNL     5       2.252  41.941  -7.297  0.00  0.00    -0.104 N 
ATOM    139  N   UNL     5      -0.220  35.361 -12.872  0.00  0.00    -0.196 N 
ATOM    140  C   UNL     5      -1.029  34.215 -13.318  0.00  0.00    +0.182 C 
ATOM    141  C   UNL     5      -0.631  32.900 -12.614  0.00  0.00    +0.262 C 
ATOM    142  O   UNL     5      -1.463  32.010 -12.437  0.00  0.00    -0.271 OA
ATOM    143  C   UNL     5      -0.981  34.041 -14.839  0.00  0.00    +0.120 C 
ATOM    144  C   UNL     5      -1.693  35.165 -15.574  0.00  0.00    +0.263 C 
ATOM    145  O   UNL     5      -2.604  35.796 -15.031  0.00  0.00    -0.272 OA
ATOM    146  N   UNL     5      -1.302  35.398 -16.826  0.00  0.00    -0.088 N 
ATOM    147  N   UNL     5       0.643  32.766 -12.231  0.00  0.00    -0.204 N 
ATOM    148  C   UNL     5       1.083  31.617 -11.455  0.00  0.00    +0.116 C 
ATOM    149  C   UNL     5       2.630  31.619 -11.301  0.00  0.00    +0.035 C 
ATOM    150  C   UNL     5       3.196  30.184 -11.162  0.00  0.00    +0.116 C 
ATOM    151  C   UNL     5       2.929  29.546  -9.797  0.00  0.00    +0.365 C 
ATOM    152  O   UNL     5       3.052  30.234  -8.759  0.00  0.00    -0.246 OA
ATOM    153  O   UNL     5       2.596  28.337  -9.765  0.00  0.00    -0.246 OA
ATOM    154  H   UNL     5      11.772  25.888  -8.631  0.00  0.00    +0.000 HD
ATOM    155  H   UNL     5      11.782  27.412  -7.958  0.00  0.00    +0.000 HD
ATOM    156  H   UNL     5      12.829  26.245  -7.395  0.00  0.00    +0.000 HD
ATOM    157  H   UNL     5      14.451  27.239  -6.881  0.00  0.00    +0.000 HD
ATOM    158  H   UNL     5      15.093  26.962 -11.083  0.00  0.00    +0.000 HD
ATOM    159  H   UNL     5      19.771  26.266 -15.269  0.00  0.00    +0.000 HD
ATOM    160  H   UNL     5      19.955  25.297 -13.878  0.00  0.00    +0.000 HD
ATOM    161  H   UNL     5      17.096  26.128  -9.431  0.00  0.00    +0.000 HD
ATOM    162  H   UNL     5      18.700  28.734  -6.239  0.00  0.00    +0.000 HD
ATOM    163  H   UNL     5      19.799  27.459  -5.970  0.00  0.00    +0.000 HD
ATOM    164  H   UNL     5      15.713  23.988  -8.104  0.00  0.00    +0.000 HD
ATOM    165  H   UNL     5      15.354  25.927  -6.143  0.00  0.00    +0.000 HD
ATOM    166  H   UNL     5      13.211  27.034  -2.252  0.00  0.00    +0.000 HD
ATOM    167  H   UNL     5      12.990  28.813  -1.354  0.00  0.00    +0.000 HD
ATOM    168  H   UNL     5      12.397  32.923  -0.067  0.00  0.00    +0.000 HD
ATOM    169  H   UNL     5      18.483  36.511   0.390  0.00  0.00    +0.000 HD
ATOM    170  H   UNL     5      17.900  36.632  -1.166  0.00  0.00    +0.000 HD
ATOM    171  H   UNL     5      19.536  36.756  -0.876  0.00  0.00    +0.000 HD
ATOM    172  H   UNL     5      15.245  33.868   2.610  0.00  0.00    +0.000 HD
ATOM    173  H   UNL     5      16.364  38.468   1.207  0.00  0.00    +0.000 HD
ATOM    174  H   UNL     5      17.916  37.946   1.684  0.00  0.00    +0.000 HD
ATOM    175  H   UNL     5      12.577  33.805   3.650  0.00  0.00    +0.000 HD
ATOM    176  H   UNL     5      11.072  34.662   1.633  0.00  0.00    +0.000 HD
ATOM    177  H   UNL     5       8.502  35.277  -1.846  0.00  0.00    +0.000 HD
ATOM    178  H   UNL     5      11.105  34.001  -6.215  0.00  0.00    +0.000 HD
ATOM    179  H   UNL     5       4.700  35.817  -9.074  0.00  0.00    +0.000 HD
ATOM    180  H   UNL     5       2.320  37.399 -12.251  0.00  0.00    +0.000 HD
ATOM    181  H   UNL     5       1.724  41.352  -9.615  0.00  0.00    +0.000 HD
ATOM    182  H   UNL     5       0.540  39.262  -7.069  0.00  0.00    +0.000 HD
ATOM    183  H   UNL     5       1.249  40.189  -5.826  0.00  0.00    +0.000 HD
ATOM    184  H   UNL     5       2.603  42.575  -7.963  0.00  0.00    +0.000 HD
ATOM    185  H   UNL     5       2.429  42.085  -6.339  0.00  0.00    +0.000 HD
ATOM    186  H   UNL     5       0.452  35.758 -13.472  0.00  0.00    +0.000 HD
ATOM    187  H   UNL     5      -1.729  36.114 -17.350  0.00  0.00    +0.000 HD
ATOM    188  H   UNL     5      -0.586  34.854 -17.228  0.00  0.00    +0.000 HD
ATOM    189  H   UNL     5       1.297  33.459 -12.479  0.00  0.00    +0.000 HD
TER 
REMARK  Name = /mnt/c/Personal/tickdock/data/docking/counterdock_calibration/2W3A_protein.pdb
REMARK                            x       y       z     vdW  Elec       q    Type
REMARK                         _______ _______ _______ _____ _____    ______ ____
ATOM      1  C   UNL     6       0.358  31.612 -10.097  0.00  0.00    +0.341 C 
ATOM      2  O   UNL     6      -0.135  30.564  -9.643  0.00  0.00    -0.262 OA
ATOM      3  N   UNL     6       0.268  32.780  -9.464  0.00  0.00    -0.080 N 
ATOM      4  H   UNL     6      -0.203  32.837  -8.601  0.00  0.00    +0.000 HD
ATOM      5  H   UNL     6       0.673  33.586  -9.858  0.00  0.00    +0.000 HD
TER 
REMARK  Name = /mnt/c/Personal/tickdock/data/docking/counterdock_calibration/2W3A_protein.pdb
REMARK                            x       y       z     vdW  Elec       q    Type
REMARK                         _______ _______ _______ _____ _____    ______ ____
ATOM      1  N   UNL     7       0.277  32.784  -9.459  0.00  0.00    -0.130 N 
ATOM      2  C   UNL     7      -0.470  32.903  -8.206  0.00  0.00    +0.130 C 
ATOM      3  H   UNL     7       0.966  33.534  -9.517  0.00  0.00    +0.000 HD
ATOM      4  H   UNL     7      -0.367  32.852 -10.247  0.00  0.00    +0.000 HD
ATOM      5  H   UNL     7       0.753  31.882  -9.487  0.00  0.00    +0.000 HD
TER 
REMARK  Name = /mnt/c/Personal/tickdock/data/docking/counterdock_calibration/2W3A_protein.pdb
REMARK                            x       y       z     vdW  Elec       q    Type
REMARK                         _______ _______ _______ _____ _____    ______ ____
ATOM      1  C   UNL     6      -0.493  32.952  -8.211  0.00  0.00    +0.009 C 
ATOM      2  C   UNL     6      -0.233  34.269  -7.547  0.00  0.00    +0.045 C 
ATOM      3  C   UNL     6      -1.071  34.484  -6.326  0.00  0.00    -0.018 A 
ATOM      4  C   UNL     6       0.952  34.768  -7.096  0.00  0.00    -0.018 A 
ATOM      5  C   UNL     6      -0.858  33.737  -5.175  0.00  0.00    -0.004 A 
ATOM      6  C   UNL     6       1.212  36.095  -6.763  0.00  0.00    -0.004 A 
ATOM      7  C   UNL     6      -2.109  35.391  -6.345  0.00  0.00    -0.004 A 
ATOM      8  C   UNL     6       1.954  33.835  -6.895  0.00  0.00    -0.004 A 
ATOM      9  C   UNL     6      -1.672  33.921  -4.056  0.00  0.00    -0.000 A 
ATOM     10  C   UNL     6       2.449  36.498  -6.243  0.00  0.00    -0.000 A 
ATOM     11  C   UNL     6      -2.914  35.585  -5.234  0.00  0.00    -0.000 A 
ATOM     12  C   UNL     6       3.179  34.224  -6.375  0.00  0.00    -0.000 A 
ATOM     13  C   UNL     6      -2.701  34.838  -4.100  0.00  0.00    -0.000 A 
ATOM     14  C   UNL     6       3.419  35.564  -6.046  0.00  0.00    -0.000 A 
TER 
REMARK  Name = /mnt/c/Personal/tickdock/data/docking/counterdock_calibration/2W3A_protein.pdb
REMARK                            x       y       z     vdW  Elec       q    Type
REMARK                         _______ _______ _______ _____ _____    ______ ____
ATOM      1  C   UNL     8      -1.973  32.634  -8.409  0.00  0.00    +0.279 C 
ATOM      2  O   UNL     8      -2.587  31.903  -7.624  0.00  0.00    -0.279 OA
TER 
REMARK  Name = /mnt/c/Personal/tickdock/data/docking/counterdock_calibration/2W3A_protein.pdb
REMARK                            x       y       z     vdW  Elec       q    Type
REMARK                         _______ _______ _______ _____ _____    ______ ____
ATOM      1  C   UNL     7      -1.966  32.611  -8.427  0.00  0.00    +0.000 C 
TER 
REMARK  Name = /mnt/c/Personal/tickdock/data/docking/counterdock_calibration/2W3A_protein.pdb
REMARK                            x       y       z     vdW  Elec       q    Type
REMARK                         _______ _______ _______ _____ _____    ______ ____
ATOM      1  O   UNL     8      -2.615  31.976  -7.581  0.00  0.00    +0.000 OA
ATOM      2  H   UNL     8      -1.645  31.976  -7.581  0.00  0.00    +0.000 HD
ATOM      3  H   UNL     8      -2.938  32.656  -6.970  0.00  0.00    +0.000 HD
TER 
REMARK  Name = /mnt/c/Personal/tickdock/data/docking/counterdock_calibration/2W3A_protein.pdb
REMARK                            x       y       z     vdW  Elec       q    Type
REMARK                         _______ _______ _______ _____ _____    ______ ____
ATOM      1  C   UNL     9      -0.399  34.388  -7.665  0.00  0.00    +0.000 C 
TER 
REMARK  Name = /mnt/c/Personal/tickdock/data/docking/counterdock_calibration/2W3A_protein.pdb
REMARK                            x       y       z     vdW  Elec       q    Type
REMARK                         _______ _______ _______ _____ _____    ______ ____
ATOM      1  N   UNL    10      -2.535  33.139  -9.502  0.00  0.00    -0.123 N 
ATOM      2  C   UNL    10      -3.935  32.850  -9.828  0.00  0.00    +0.169 C 
ATOM      3  C   UNL    10      -4.205  31.350 -10.007  0.00  0.00    +0.259 C 
ATOM      4  O   UNL    10      -5.272  30.861  -9.628  0.00  0.00    -0.272 OA
ATOM      5  C   UNL    10      -4.388  33.621 -11.061  0.00  0.00    +0.028 C 
ATOM      6  C   UNL    10      -4.571  35.115 -10.841  0.00  0.00    +0.002 C 
ATOM      7  C   UNL    10      -5.163  35.784 -12.054  0.00  0.00    +0.000 C 
ATOM      8  N   UNL    10      -3.218  30.613 -10.538  0.00  0.00    -0.196 N 
ATOM      9  C   UNL    10      -3.281  29.130 -10.641  0.00  0.00    +0.177 C 
ATOM     10  C   UNL    10      -3.294  28.493  -9.226  0.00  0.00    +0.262 C 
ATOM     11  O   UNL    10      -4.160  27.661  -8.942  0.00  0.00    -0.271 OA
ATOM     12  C   UNL    10      -2.100  28.593 -11.459  0.00  0.00    +0.057 C 
ATOM     13  C   UNL    10      -1.916  27.088 -11.519  0.00  0.00    -0.020 A 
ATOM     14  C   UNL    10      -2.670  26.313 -12.412  0.00  0.00    -0.001 A 
ATOM     15  C   UNL    10      -1.002  26.428 -10.713  0.00  0.00    -0.001 A 
ATOM     16  C   UNL    10      -2.475  24.944 -12.530  0.00  0.00    +0.042 A 
ATOM     17  C   UNL    10      -0.831  25.073 -10.794  0.00  0.00    +0.042 A 
ATOM     18  C   UNL    10      -1.566  24.321 -11.706  0.00  0.00    +0.196 A 
ATOM     19  O   UNL    10      -1.354  22.948 -11.823  0.00  0.00    -0.287 OA
ATOM     20  N   UNL    10      -2.376  28.894  -8.347  0.00  0.00    -0.204 N 
ATOM     21  C   UNL    10      -2.392  28.466  -6.950  0.00  0.00    +0.120 C 
ATOM     22  C   UNL    10      -1.308  29.190  -6.137  0.00  0.00    +0.050 C 
ATOM     23  C   UNL    10      -1.417  28.949  -4.636  0.00  0.00    -0.020 A 
ATOM     24  C   UNL    10      -0.799  27.872  -4.017  0.00  0.00    -0.004 A 
ATOM     25  C   UNL    10      -2.142  29.837  -3.859  0.00  0.00    -0.004 A 
ATOM     26  C   UNL    10      -0.913  27.688  -2.627  0.00  0.00    -0.000 A 
ATOM     27  C   UNL    10      -2.279  29.669  -2.495  0.00  0.00    -0.000 A 
ATOM     28  C   UNL    10      -1.675  28.604  -1.865  0.00  0.00    -0.000 A 
ATOM     29  H   UNL    10      -2.412  34.146  -9.394  0.00  0.00    +0.000 HD
ATOM     30  H   UNL    10      -1.934  32.801 -10.254  0.00  0.00    +0.000 HD
ATOM     31  H   UNL    10      -2.285  32.671  -8.631  0.00  0.00    +0.000 HD
ATOM     32  H   UNL    10      -2.416  31.074 -10.875  0.00  0.00    +0.000 HD
ATOM     33  H   UNL    10      -1.852  22.448 -12.439  0.00  0.00    +0.000 HD
ATOM     34  H   UNL    10      -1.662  29.500  -8.650  0.00  0.00    +0.000 HD
TER 
REMARK  Name = /mnt/c/Personal/tickdock/data/docking/counterdock_calibration/2W3A_protein.pdb
REMARK                            x       y       z     vdW  Elec       q    Type
REMARK                         _______ _______ _______ _____ _____    ______ ____
ATOM      1  C   UNL    11      -3.779  28.724  -6.301  0.00  0.00    +0.341 C 
ATOM      2  O   UNL    11      -4.343  27.836  -5.636  0.00  0.00    -0.262 OA
ATOM      3  N   UNL    11      -4.328  29.914  -6.510  0.00  0.00    -0.080 N 
ATOM      4  H   UNL    11      -5.214  30.121  -6.133  0.00  0.00    +0.000 HD
ATOM      5  H   UNL    11      -3.850  30.590  -7.042  0.00  0.00    +0.000 HD
TER 
REMARK  Name = /mnt/c/Personal/tickdock/data/docking/counterdock_calibration/2W3A_protein.pdb
REMARK                            x       y       z     vdW  Elec       q    Type
REMARK                         _______ _______ _______ _____ _____    ______ ____
ATOM      1  N   UNL    12      -4.334  29.925  -6.502  0.00  0.00    -0.130 N 
ATOM      2  C   UNL    12      -5.637  30.249  -5.947  0.00  0.00    +0.130 C 
ATOM      3  H   UNL    12      -4.141  30.536  -7.296  0.00  0.00    +0.000 HD
ATOM      4  H   UNL    12      -4.328  28.953  -6.812  0.00  0.00    +0.000 HD
ATOM      5  H   UNL    12      -3.618  30.059  -5.788  0.00  0.00    +0.000 HD
TER 
REMARK  Name = /mnt/c/Personal/tickdock/data/docking/counterdock_calibration/2W3A_protein.pdb
REMARK                            x       y       z     vdW  Elec       q    Type
REMARK                         _______ _______ _______ _____ _____    ______ ____
ATOM      1  C   UNL    13      -5.649  30.280  -5.916  0.00  0.00    +0.000 C 
ATOM      2  C   UNL    13      -5.942  31.705  -6.244  0.00  0.00    +0.000 C 
TER 
REMARK  Name = /mnt/c/Personal/tickdock/data/docking/counterdock_calibration/2W3A_protein.pdb
REMARK                            x       y       z     vdW  Elec       q    Type
REMARK                         _______ _______ _______ _____ _____    ______ ____
ATOM      1  C   UNL    14      -6.791  29.429  -6.516  0.00  0.00    +0.279 C 
ATOM      2  O   UNL    14      -7.689  28.976  -5.799  0.00  0.00    -0.279 OA
TER 
REMARK  Name = /mnt/c/Personal/tickdock/data/docking/counterdock_calibration/2W3A_protein.pdb
REMARK                            x       y       z     vdW  Elec       q    Type
REMARK                         _______ _______ _______ _____ _____    ______ ____
ATOM      1  C   UNL    15      -6.727  29.332  -6.506  0.00  0.00    +0.279 C 
ATOM      2  O   UNL    15      -7.502  28.720  -5.753  0.00  0.00    -0.279 OA
TER 
REMARK  Name = /mnt/c/Personal/tickdock/data/docking/counterdock_calibration/2W3A_protein.pdb
REMARK                            x       y       z     vdW  Elec       q    Type
REMARK                         _______ _______ _______ _____ _____    ______ ____
ATOM      1  C   UNL    11      -5.937  31.784  -6.080  0.00  0.00    +0.019 C 
ATOM      2  C   UNL    11      -5.013  32.755  -5.325  0.00  0.00    +0.089 C 
ATOM      3  C   UNL    11      -7.237  32.206  -5.642  0.00  0.00    +0.089 C 
ATOM      4  C   UNL    11      -5.330  32.945  -3.830  0.00  0.00    +0.261 C 
ATOM      5  C   UNL    11      -7.432  33.660  -5.978  0.00  0.00    +0.261 C 
ATOM      6  O   UNL    11      -4.867  32.181  -2.973  0.00  0.00    -0.272 OA
ATOM      7  O   UNL    11      -7.627  34.007  -7.141  0.00  0.00    -0.272 OA
ATOM      8  N   UNL    11      -6.055  34.026  -3.507  0.00  0.00    -0.088 N 
ATOM      9  N   UNL    11      -7.290  34.524  -4.987  0.00  0.00    -0.088 N 
ATOM     10  H   UNL    11      -6.408  34.612  -4.215  0.00  0.00    +0.000 HD
ATOM     11  H   UNL    11      -6.235  34.234  -2.562  0.00  0.00    +0.000 HD
ATOM     12  H   UNL    11      -7.407  35.487  -5.153  0.00  0.00    +0.000 HD
ATOM     13  H   UNL    11      -7.067  34.204  -4.083  0.00  0.00    +0.000 HD
TER 
REMARK  Name = /mnt/c/Personal/tickdock/data/docking/counterdock_calibration/2W3A_protein.pdb
REMARK                            x       y       z     vdW  Elec       q    Type
REMARK                         _______ _______ _______ _____ _____    ______ ____
ATOM      1  N   ARG H   1      -6.768  29.202  -7.828  0.00  0.00    -0.123 N 
ATOM      2  CA  ARG H   1      -7.794  28.367  -8.480  0.00  0.00    +0.169 C 
ATOM      3  C   ARG H   1      -7.744  26.920  -7.993  0.00  0.00    +0.259 C 
ATOM      4  O   ARG H   1      -8.772  26.310  -7.662  0.00  0.00    -0.272 OA
ATOM      5  CB  ARG H   1      -7.659  28.425 -10.001  0.00  0.00    +0.030 C 
ATOM      6  CG  ARG H   1      -8.554  27.448 -10.741  0.00  0.00    +0.028 C 
ATOM      7  CD  ARG H   1      -8.535  27.697 -12.242  0.00  0.00    +0.129 C 
ATOM      8  NE  ARG H   1      -7.257  27.431 -12.916  0.00  0.00    -0.234 N 
ATOM      9  CZ  ARG H   1      -6.885  26.274 -13.483  0.00  0.00    +0.284 C 
ATOM     10  NH2 ARG H   1      -7.615  25.167 -13.385  0.00  0.00    -0.104 N 
ATOM     11  NH1 ARG H   1      -5.739  26.209 -14.134  0.00  0.00    -0.104 N 
ATOM     12  N   MET H   2      -6.555  26.331  -7.983  0.00  0.00    -0.197 N 
ATOM     13  CA  MET H   2      -6.408  24.932  -7.589  0.00  0.00    +0.174 C 
ATOM     14  C   MET H   2      -6.793  24.692  -6.140  0.00  0.00    +0.262 C 
ATOM     15  O   MET H   2      -7.530  23.771  -5.826  0.00  0.00    -0.271 OA
ATOM     16  CB  MET H   2      -4.983  24.449  -7.887  0.00  0.00    +0.043 C 
ATOM     17  CG  MET H   2      -4.637  24.499  -9.398  0.00  0.00    +0.060 C 
ATOM     18  SD  MET H   2      -5.742  23.532 -10.474  0.00  0.00    -0.139 S 
ATOM     19  CE  MET H   2      -5.346  22.008  -9.702  0.00  0.00    +0.069 C 
ATOM     20  N   THR H   3      -6.328  25.560  -5.247  0.00  0.00    -0.194 N 
ATOM     21  CA  THR H   3      -6.573  25.348  -3.842  0.00  0.00    +0.203 C 
ATOM     22  C   THR H   3      -8.000  25.743  -3.435  0.00  0.00    +0.264 C 
ATOM     23  O   THR H   3      -8.536  25.167  -2.472  0.00  0.00    -0.271 OA
ATOM     24  CB  THR H   3      -5.550  26.064  -2.929  0.00  0.00    +0.181 C 
ATOM     25  OG1 THR H   3      -5.606  27.489  -3.129  0.00  0.00    -0.221 OA
ATOM     26  CG2 THR H   3      -4.120  25.483  -3.153  0.00  0.00    +0.038 C 
ATOM     27  N   THR H   4      -8.634  26.678  -4.149  0.00  0.00    -0.194 N 
ATOM     28  CA  THR H   4      -9.975  27.162  -3.744  0.00  0.00    +0.203 C 
ATOM     29  C   THR H   4     -11.164  26.423  -4.365  0.00  0.00    +0.264 C 
ATOM     30  O   THR H   4     -12.196  26.272  -3.739  0.00  0.00    -0.271 OA
ATOM     31  CB  THR H   4     -10.152  28.675  -4.051  0.00  0.00    +0.181 C 
ATOM     32  OG1 THR H   4      -9.030  29.405  -3.573  0.00  0.00    -0.221 OA
ATOM     33  CG2 THR H   4     -11.395  29.237  -3.354  0.00  0.00    +0.038 C 
ATOM     34  N   THR H   5     -11.019  25.978  -5.603  0.00  0.00    -0.194 N 
ATOM     35  CA  THR H   5     -12.152  25.441  -6.351  0.00  0.00    +0.203 C 
ATOM     36  C   THR H   5     -12.665  24.106  -5.803  0.00  0.00    +0.264 C 
ATOM     37  O   THR H   5     -11.914  23.121  -5.701  0.00  0.00    -0.271 OA
ATOM     38  CB  THR H   5     -11.802  25.301  -7.837  0.00  0.00    +0.181 C 
ATOM     39  OG1 THR H   5     -11.396  26.586  -8.330  0.00  0.00    -0.221 OA
ATOM     40  CG2 THR H   5     -13.022  24.820  -8.662  0.00  0.00    +0.038 C 
ATOM     41  N   SER H   6     -13.952  24.098  -5.444  0.00  0.00    -0.194 N 
ATOM     42  CA  SER H   6     -14.686  22.866  -5.128  0.00  0.00    +0.205 C 
ATOM     43  C   SER H   6     -16.057  22.960  -5.773  0.00  0.00    +0.264 C 
ATOM     44  O   SER H   6     -16.767  23.938  -5.560  0.00  0.00    -0.271 OA
ATOM     45  CB  SER H   6     -14.839  22.646  -3.606  0.00  0.00    +0.213 C 
ATOM     46  OG  SER H   6     -15.763  21.572  -3.367  0.00  0.00    -0.218 OA
ATOM     47  N   UNK H   7     -16.439  21.953  -6.554  0.00  0.00    -0.194 N 
ATOM     48  C   UNK H   7     -17.786  21.882  -7.141  0.00  0.00    +0.205 C 
ATOM     49  C   UNK H   7     -18.784  21.112  -6.280  0.00  0.00    +0.264 C 
ATOM     50  O   UNK H   7     -19.920  20.862  -6.722  0.00  0.00    -0.271 OA
ATOM     51  C   UNK H   7     -17.726  21.282  -8.569  0.00  0.00    +0.213 C 
ATOM     52  O   UNK H   7     -17.177  19.959  -8.589  0.00  0.00    -0.218 OA
ATOM     53  N   UNK H   7     -18.386  20.741  -5.055  0.00  0.00    -0.196 N 
ATOM     54  C   UNK H   7     -19.284  20.018  -4.127  0.00  0.00    +0.173 C 
ATOM     55  C   UNK H   7     -20.028  21.014  -3.239  0.00  0.00    +0.262 C 
ATOM     56  O   UNK H   7     -19.388  21.721  -2.434  0.00  0.00    -0.271 OA
ATOM     57  C   UNK H   7     -18.511  19.036  -3.220  0.00  0.00    +0.029 C 
ATOM     58  C   UNK H   7     -19.477  18.263  -2.323  0.00  0.00    +0.002 C 
ATOM     59  C   UNK H   7     -17.686  18.050  -4.079  0.00  0.00    +0.002 C 
ATOM     60  N   UNK H   7     -21.347  21.107  -3.415  0.00  0.00    -0.196 N 
ATOM     61  C   UNK H   7     -22.134  22.099  -2.680  0.00  0.00    +0.173 C 
ATOM     62  C   UNK H   7     -22.067  21.825  -1.184  0.00  0.00    +0.262 C 
ATOM     63  O   UNK H   7     -22.173  20.682  -0.738  0.00  0.00    -0.271 OA
ATOM     64  C   UNK H   7     -23.575  22.167  -3.172  0.00  0.00    +0.043 C 
ATOM     65  C   UNK H   7     -24.329  23.359  -2.585  0.00  0.00    +0.116 C 
ATOM     66  C   UNK H   7     -25.692  23.569  -3.163  0.00  0.00    +0.365 C 
ATOM     67  O   UNK H   7     -26.117  22.775  -4.027  0.00  0.00    -0.246 OA
ATOM     68  O   UNK H   7     -26.366  24.530  -2.729  0.00  0.00    -0.246 OA
ATOM     69  N   UNK H   7     -21.858  22.886  -0.409  0.00  0.00    -0.194 N 
ATOM     70  C   UNK H   7     -21.838  22.784   1.034  0.00  0.00    +0.201 C 
ATOM     71  C   UNK H   7     -20.484  22.526   1.648  0.00  0.00    +0.263 C 
ATOM     72  O   UNK H   7     -20.373  22.545   2.874  0.00  0.00    -0.271 OA
ATOM     73  N   UNK H   7     -19.457  22.299   0.814  0.00  0.00    -0.204 N 
ATOM     74  C   UNK H   7     -18.105  22.011   1.296  0.00  0.00    +0.115 C 
ATOM     75  C   UNK H   7     -17.677  20.596   0.884  0.00  0.00    +0.023 C 
ATOM     76  C   UNK H   7     -18.650  19.506   1.345  0.00  0.00    +0.003 C 
ATOM     77  C   UNK H   7     -18.078  18.119   1.170  0.00  0.00    +0.021 C 
ATOM     78  C   UNK H   7     -19.054  17.055   1.678  0.00  0.00    +0.109 C 
ATOM     79  N   UNK H   7     -18.428  15.705   1.702  0.00  0.00    -0.131 N 
ATOM     80  H   ARG H   1      -6.834  30.158  -8.179  0.00  0.00    +0.000 HD
ATOM     81  H   ARG H   1      -5.842  28.827  -8.035  0.00  0.00    +0.000 HD
ATOM     82  H   ARG H   1      -6.918  29.199  -6.819  0.00  0.00    +0.000 HD
ATOM     83  H   ARG H   1      -6.612  28.173 -12.955  0.00  0.00    +0.000 HD
ATOM     84  H   ARG H   1      -7.309  24.336 -13.815  0.00  0.00    +0.000 HD
ATOM     85  H   ARG H   1      -8.461  25.178 -12.882  0.00  0.00    +0.000 HD
ATOM     86  H   ARG H   1      -5.458  25.364 -14.553  0.00  0.00    +0.000 HD
ATOM     87  H   ARG H   1      -5.165  27.006 -14.200  0.00  0.00    +0.000 HD
ATOM     88  H   MET H   2      -5.758  26.846  -8.246  0.00  0.00    +0.000 HD
ATOM     89  H   THR H   3      -5.817  26.347  -5.545  0.00  0.00    +0.000 HD
ATOM     90  H   THR H   3      -5.381  27.695  -4.050  0.00  0.00    +0.000 HD
ATOM     91  H   THR H   4      -8.205  27.050  -4.954  0.00  0.00    +0.000 HD
ATOM     92  H   THR H   4      -8.961  29.299  -2.611  0.00  0.00    +0.000 HD
ATOM     93  H   THR H   5     -10.131  26.010  -6.027  0.00  0.00    +0.000 HD
ATOM     94  H   THR H   5     -12.125  27.217  -8.226  0.00  0.00    +0.000 HD
ATOM     95  H   SER H   6     -14.430  24.957  -5.389  0.00  0.00    +0.000 HD
ATOM     96  H   SER H   6     -16.626  21.797  -3.749  0.00  0.00    +0.000 HD
ATOM     97  H   UNK H   7     -15.798  21.231  -6.746  0.00  0.00    +0.000 HD
ATOM     98  H   UNK H   7     -17.738  19.368  -8.063  0.00  0.00    +0.000 HD
ATOM     99  H   UNK H   7     -17.470  20.956  -4.764  0.00  0.00    +0.000 HD
ATOM    100  H   UNK H   7     -21.797  20.501  -4.047  0.00  0.00    +0.000 HD
ATOM    101  H   UNK H   7     -21.713  23.765  -0.829  0.00  0.00    +0.000 HD
ATOM    102  H   UNK H   7     -19.619  22.327  -0.157  0.00  0.00    +0.000 HD
ATOM    103  H   UNK H   7     -18.150  15.442   0.756  0.00  0.00    +0.000 HD
ATOM    104  H   UNK H   7     -19.099  15.025   2.060  0.00  0.00    +0.000 HD
ATOM    105  H   UNK H   7     -17.606  15.722   2.306  0.00  0.00    +0.000 HD
TER 
REMARK  Name = /mnt/c/Personal/tickdock/data/docking/counterdock_calibration/2W3A_protein.pdb
REMARK                            x       y       z     vdW  Elec       q    Type
REMARK                         _______ _______ _______ _____ _____    ______ ____
ATOM      1  C   UNL    12     -17.060  23.030   0.811  0.00  0.00    +0.320 C 
ATOM      2  O   UNL    12     -17.279  23.731  -0.192  0.00  0.00    -0.263 OA
ATOM      3  N   UNL    12     -15.945  23.104   1.532  0.00  0.00    -0.196 N 
ATOM      4  C   UNL    12     -14.785  23.944   1.222  0.00  0.00    +0.139 C 
ATOM      5  H   UNL    12     -15.895  22.547   2.343  0.00  0.00    +0.000 HD
TER 
REMARK  Name = /mnt/c/Personal/tickdock/data/docking/counterdock_calibration/2W3A_protein.pdb
REMARK                            x       y       z     vdW  Elec       q    Type
REMARK                         _______ _______ _______ _____ _____    ______ ____
ATOM      1  N   UNL    13     -15.943  23.090   1.539  0.00  0.00    +0.000 N 
ATOM      2  H   UNL    13     -14.923  23.090   1.539  0.00  0.00    +0.000 HD
ATOM      3  H   UNL    13     -16.283  23.922   2.021  0.00  0.00    +0.000 HD
ATOM      4  H   UNL    13     -16.283  22.257   2.019  0.00  0.00    +0.000 HD
ATOM      5  H   UNL    13     -16.283  23.091   0.577  0.00  0.00    +0.000 HD
TER 
REMARK  Name = /mnt/c/Personal/tickdock/data/docking/counterdock_calibration/2W3A_protein.pdb
REMARK                            x       y       z     vdW  Elec       q    Type
REMARK                         _______ _______ _______ _____ _____    ______ ____
ATOM      1  C   UNL    14     -14.797  23.942   1.161  0.00  0.00    +0.000 C 
TER 
REMARK  Name = /mnt/c/Personal/tickdock/data/docking/counterdock_calibration/2W3A_protein.pdb
REMARK                            x       y       z     vdW  Elec       q    Type
REMARK                         _______ _______ _______ _____ _____    ______ ____
ATOM      1  C   UNL    18     -13.519  23.106   1.229  0.00  0.00    +0.279 C 
ATOM      2  O   UNL    18     -13.514  22.027   1.794  0.00  0.00    -0.279 OA
TER 
REMARK  Name = /mnt/c/Personal/tickdock/data/docking/counterdock_calibration/2W3A_protein.pdb
REMARK                            x       y       z     vdW  Elec       q    Type
REMARK                         _______ _______ _______ _____ _____    ______ ____
ATOM      1  C   UNL    15     -13.541  23.087   1.179  0.00  0.00    +0.000 C 
TER 
REMARK  Name = /mnt/c/Personal/tickdock/data/docking/counterdock_calibration/2W3A_protein.pdb
REMARK                            x       y       z     vdW  Elec       q    Type
REMARK                         _______ _______ _______ _____ _____    ______ ____
ATOM      1  O   HOH    16     -13.444  22.098   1.926  0.00  0.00    +0.000 OA
ATOM      2  H   HOH    16     -12.474  22.098   1.926  0.00  0.00    +0.000 HD
ATOM      3  H   HOH    16     -13.767  22.841   2.459  0.00  0.00    +0.000 HD
TER 
REMARK  Name = /mnt/c/Personal/tickdock/data/docking/counterdock_calibration/2W3A_protein.pdb
REMARK                            x       y       z     vdW  Elec       q    Type
REMARK                         _______ _______ _______ _____ _____    ______ ____
ATOM      1  C   UNL    17     -14.567  25.008   2.303  0.00  0.00    +0.000 C 
TER 
REMARK  Name = /mnt/c/Personal/tickdock/data/docking/counterdock_calibration/2W3A_protein.pdb
REMARK                            x       y       z     vdW  Elec       q    Type
REMARK                         _______ _______ _______ _____ _____    ______ ____
ATOM      1  C   UNL    21     -14.594  25.085   2.164  0.00  0.00    +0.000 C 
ATOM      2  C   UNL    21     -15.470  26.202   2.295  0.00  0.00    +0.000 C 
TER 
REMARK  Name = /mnt/c/Personal/tickdock/data/docking/counterdock_calibration/2W3A_protein.pdb
REMARK                            x       y       z     vdW  Elec       q    Type
REMARK                         _______ _______ _______ _____ _____    ______ ____
ATOM      1  C   UNL    18     -15.448  26.320   1.971  0.00  0.00    +0.000 C 
TER 
REMARK  Name = /mnt/c/Personal/tickdock/data/docking/counterdock_calibration/2W3A_protein.pdb
REMARK                            x       y       z     vdW  Elec       q    Type
REMARK                         _______ _______ _______ _____ _____    ______ ____
ATOM      1  C   UNL    19     -15.012  27.226   3.323  0.00  0.00    +0.275 C 
ATOM      2  C   UNL    19     -15.062  27.431   2.948  0.00  0.00    +0.235 C 
ATOM      3  O   UNL    19     -13.992  27.911   3.140  0.00  0.00    -0.215 OA
ATOM      4  O   UNL    19     -14.405  27.182   3.970  0.00  0.00    -0.201 OA
ATOM      5  N   UNL    19     -15.743  27.311   4.428  0.00  0.00    -0.094 N 
ATOM      6  H   UNL    19     -15.379  28.057   5.020  0.00  0.00    +0.000 HD
ATOM      7  H   UNL    19     -15.701  26.425   4.932  0.00  0.00    +0.000 HD
ATOM      8  H   UNL    19     -16.711  27.516   4.180  0.00  0.00    +0.000 HD
TER 
REMARK  Name = /mnt/c/Personal/tickdock/data/docking/counterdock_calibration/2W3A_protein.pdb
REMARK                            x       y       z     vdW  Elec       q    Type
REMARK                         _______ _______ _______ _____ _____    ______ ____
ATOM      1  N   UNL    20     -15.471  28.660   2.641  0.00  0.00    +0.000 N 
ATOM      2  H   UNL    20     -14.451  28.660   2.641  0.00  0.00    +0.000 HD
ATOM      3  H   UNL    20     -15.811  29.592   2.406  0.00  0.00    +0.000 HD
ATOM      4  H   UNL    20     -15.811  28.398   3.566  0.00  0.00    +0.000 HD
ATOM      5  H   UNL    20     -15.811  27.990   1.951  0.00  0.00    +0.000 HD
TER 
REMARK  Name = /mnt/c/Personal/tickdock/data/docking/counterdock_calibration/2W3A_protein.pdb
REMARK                            x       y       z     vdW  Elec       q    Type
REMARK                         _______ _______ _______ _____ _____    ______ ____
ATOM      1  N   ASN K   1     -12.489  23.554   0.523  0.00  0.00    -0.123 N 
ATOM      2  CA  ASN K   1     -11.193  22.883   0.628  0.00  0.00    +0.178 C 
ATOM      3  C   ASN K   1     -10.439  23.334   1.853  0.00  0.00    +0.260 C 
ATOM      4  O   ASN K   1     -10.668  24.444   2.361  0.00  0.00    -0.272 OA
ATOM      5  CB  ASN K   1     -10.349  23.126  -0.607  0.00  0.00    +0.117 C 
ATOM      6  CG  ASN K   1     -10.957  22.527  -1.868  0.00  0.00    +0.263 C 
ATOM      7  OD1 ASN K   1     -11.804  21.612  -1.811  0.00  0.00    -0.272 OA
ATOM      8  ND2 ASN K   1     -10.511  23.029  -3.027  0.00  0.00    -0.088 N 
ATOM      9  N   LEU K   2      -9.550  22.467   2.324  0.00  0.00    -0.197 N 
ATOM     10  CA  LEU K   2      -8.688  22.729   3.479  0.00  0.00    +0.173 C 
ATOM     11  C   LEU K   2      -7.246  22.923   3.016  0.00  0.00    +0.262 C 
ATOM     12  O   LEU K   2      -6.746  22.153   2.200  0.00  0.00    -0.271 OA
ATOM     13  CB  LEU K   2      -8.788  21.549   4.457  0.00  0.00    +0.031 C 
ATOM     14  CG  LEU K   2      -7.837  21.529   5.664  0.00  0.00    +0.002 C 
ATOM     15  CD2 LEU K   2      -8.203  22.603   6.666  0.00  0.00    +0.000 C 
ATOM     16  CD1 LEU K   2      -7.832  20.156   6.325  0.00  0.00    +0.000 C 
ATOM     17  N   VAL K   3      -6.605  23.996   3.467  0.00  0.00    -0.196 N 
ATOM     18  CA  VAL K   3      -5.181  24.208   3.199  0.00  0.00    +0.173 C 
ATOM     19  C   VAL K   3      -4.415  24.008   4.502  0.00  0.00    +0.262 C 
ATOM     20  O   VAL K   3      -4.838  24.493   5.553  0.00  0.00    -0.271 OA
ATOM     21  CB  VAL K   3      -4.882  25.605   2.614  0.00  0.00    +0.029 C 
ATOM     22  CG1 VAL K   3      -5.468  25.759   1.225  0.00  0.00    +0.002 C 
ATOM     23  CG2 VAL K   3      -5.379  26.699   3.524  0.00  0.00    +0.002 C 
ATOM     24  N   ILE K   4      -3.337  23.229   4.444  0.00  0.00    -0.196 N 
ATOM     25  CA  ILE K   4      -2.490  22.912   5.589  0.00  0.00    +0.173 C 
ATOM     26  C   ILE K   4      -1.097  23.492   5.348  0.00  0.00    +0.262 C 
ATOM     27  O   ILE K   4      -0.533  23.323   4.265  0.00  0.00    -0.271 OA
ATOM     28  CB  ILE K   4      -2.393  21.377   5.797  0.00  0.00    +0.029 C 
ATOM     29  CG1 ILE K   4      -3.748  20.816   6.210  0.00  0.00    +0.002 C 
ATOM     30  CG2 ILE K   4      -1.315  21.009   6.846  0.00  0.00    +0.002 C 
ATOM     31  CD1 ILE K   4      -3.788  19.277   6.254  0.00  0.00    +0.000 C 
ATOM     32  N   MET K   5      -0.546  24.178   6.341  0.00  0.00    -0.192 N 
ATOM     33  CA  MET K   5       0.778  24.811   6.181  0.00  0.00    +0.195 C 
ATOM     34  C   MET K   5       1.518  24.895   7.508  0.00  0.00    +0.266 C 
ATOM     35  O   MET K   5       0.874  24.898   8.554  0.00  0.00    -0.271 OA
ATOM     36  CB  MET K   5       0.609  26.201   5.595  0.00  0.00    +0.011 C 
ATOM     37  CG  MET K   5       0.121  27.271   6.558  0.00  0.00    +0.029 C 
ATOM     38  SD  MET K   5      -0.478  28.772   5.806  0.00  0.00    -0.113 S 
ATOM     39  CE  MET K   5      -2.111  28.229   5.260  0.00  0.00    +0.074 C 
ATOM     40  N   GLY K   6       2.844  24.995   7.455  0.00  0.00    -0.194 N 
ATOM     41  CA  GLY K   6       3.632  25.272   8.660  0.00  0.00    +0.201 C 
ATOM     42  C   GLY K   6       3.575  26.725   9.089  0.00  0.00    +0.264 C 
ATOM     43  O   GLY K   6       3.047  27.585   8.389  0.00  0.00    -0.271 OA
ATOM     44  N   LYS K   7       4.116  27.001  10.265  0.00  0.00    -0.196 N 
ATOM     45  CA  LYS K   7       3.950  28.324  10.879  0.00  0.00    +0.173 C 
ATOM     46  C   LYS K   7       4.704  29.434  10.130  0.00  0.00    +0.262 C 
ATOM     47  O   LYS K   7       4.181  30.538   9.961  0.00  0.00    -0.271 OA
ATOM     48  CB  LYS K   7       4.384  28.291  12.339  0.00  0.00    +0.031 C 
ATOM     49  CG  LYS K   7       4.041  29.539  13.139  0.00  0.00    +0.004 C 
ATOM     50  CD  LYS K   7       4.455  29.381  14.605  0.00  0.00    +0.021 C 
ATOM     51  CE  LYS K   7       5.962  29.442  14.800  0.00  0.00    +0.109 C 
ATOM     52  NZ  LYS K   7       6.323  29.287  16.243  0.00  0.00    -0.131 N 
ATOM     53  N   LYS K   8       5.910  29.134   9.669  0.00  0.00    -0.196 N 
ATOM     54  CA  LYS K   8       6.670  30.112   8.870  0.00  0.00    +0.173 C 
ATOM     55  C   LYS K   8       5.985  30.442   7.556  0.00  0.00    +0.262 C 
ATOM     56  O   LYS K   8       5.990  31.595   7.130  0.00  0.00    -0.271 OA
ATOM     57  CB  LYS K   8       8.089  29.624   8.606  0.00  0.00    +0.031 C 
ATOM     58  CG  LYS K   8       8.919  29.468   9.862  0.00  0.00    +0.004 C 
ATOM     59  CD  LYS K   8      10.332  29.117   9.507  0.00  0.00    +0.021 C 
ATOM     60  CE  LYS K   8      11.207  29.043  10.721  0.00  0.00    +0.109 C 
ATOM     61  NZ  LYS K   8      12.610  28.927  10.265  0.00  0.00    -0.131 N 
ATOM     62  N   THR K   9       5.369  29.449   6.912  0.00  0.00    -0.194 N 
ATOM     63  CA  THR K   9       4.598  29.729   5.717  0.00  0.00    +0.203 C 
ATOM     64  C   THR K   9       3.406  30.624   6.041  0.00  0.00    +0.264 C 
ATOM     65  O   THR K   9       3.127  31.565   5.294  0.00  0.00    -0.271 OA
ATOM     66  CB  THR K   9       4.161  28.424   5.019  0.00  0.00    +0.181 C 
ATOM     67  OG1 THR K   9       5.343  27.716   4.623  0.00  0.00    -0.221 OA
ATOM     68  CG2 THR K   9       3.267  28.670   3.783  0.00  0.00    +0.038 C 
ATOM     69  N   TRP K  10       2.703  30.353   7.155  0.00  0.00    -0.196 N 
ATOM     70  CA  TRP K  10       1.583  31.222   7.566  0.00  0.00    +0.177 C 
ATOM     71  C   TRP K  10       2.033  32.692   7.689  0.00  0.00    +0.262 C 
ATOM     72  O   TRP K  10       1.425  33.592   7.112  0.00  0.00    -0.271 OA
ATOM     73  CB  TRP K  10       0.944  30.729   8.898  0.00  0.00    +0.055 C 
ATOM     74  CG  TRP K  10      -0.048  31.697   9.496  0.00  0.00    -0.016 C 
ATOM     75  CD1 TRP K  10       0.205  32.638  10.489  0.00  0.00    +0.148 C 
ATOM     76  CD2 TRP K  10      -1.418  31.872   9.124  0.00  0.00    +0.011 A 
ATOM     77  NE1 TRP K  10      -0.942  33.355  10.751  0.00  0.00    -0.266 NA
ATOM     78  CE2 TRP K  10      -1.950  32.892   9.939  0.00  0.00    +0.076 A 
ATOM     79  CE3 TRP K  10      -2.270  31.233   8.202  0.00  0.00    +0.001 A 
ATOM     80  CZ2 TRP K  10      -3.282  33.320   9.827  0.00  0.00    +0.019 A 
ATOM     81  CZ3 TRP K  10      -3.589  31.660   8.097  0.00  0.00    +0.000 A 
ATOM     82  CH2 TRP K  10      -4.085  32.683   8.909  0.00  0.00    +0.002 A 
ATOM     83  N   PHE K  11       3.110  32.915   8.418  0.00  0.00    -0.196 N 
ATOM     84  CA  PHE K  11       3.582  34.289   8.660  0.00  0.00    +0.177 C 
ATOM     85  C   PHE K  11       4.201  34.927   7.388  0.00  0.00    +0.262 C 
ATOM     86  O   PHE K  11       4.345  36.160   7.313  0.00  0.00    -0.271 OA
ATOM     87  CB  PHE K  11       4.495  34.336   9.892  0.00  0.00    +0.057 C 
ATOM     88  CG  PHE K  11       3.746  34.177  11.203  0.00  0.00    -0.020 A 
ATOM     89  CD1 PHE K  11       2.788  35.115  11.582  0.00  0.00    -0.004 A 
ATOM     90  CD2 PHE K  11       3.990  33.095  12.046  0.00  0.00    -0.004 A 
ATOM     91  CE1 PHE K  11       2.077  34.967  12.774  0.00  0.00    -0.000 A 
ATOM     92  CE2 PHE K  11       3.289  32.945  13.250  0.00  0.00    -0.000 A 
ATOM     93  CZ  PHE K  11       2.334  33.880  13.609  0.00  0.00    -0.000 A 
ATOM     94  N   SER K  12       4.524  34.101   6.389  0.00  0.00    -0.194 N 
ATOM     95  CA  SER K  12       4.981  34.589   5.078  0.00  0.00    +0.205 C 
ATOM     96  C   SER K  12       3.858  35.148   4.201  0.00  0.00    +0.264 C 
ATOM     97  O   SER K  12       4.123  35.762   3.152  0.00  0.00    -0.271 OA
ATOM     98  CB  SER K  12       5.721  33.476   4.302  0.00  0.00    +0.213 C 
ATOM     99  OG  SER K  12       4.832  32.594   3.611  0.00  0.00    -0.218 OA
ATOM    100  N   ILE K  13       2.610  34.906   4.592  0.00  0.00    -0.196 N 
ATOM    101  CA  ILE K  13       1.453  35.439   3.863  0.00  0.00    +0.171 C 
ATOM    102  C   ILE K  13       1.193  36.875   4.353  0.00  0.00    +0.246 C 
ATOM    103  O   ILE K  13       1.330  37.148   5.549  0.00  0.00    -0.273 OA
ATOM    104  CB  ILE K  13       0.207  34.572   4.080  0.00  0.00    +0.029 C 
ATOM    105  CG1 ILE K  13       0.471  33.128   3.608  0.00  0.00    +0.002 C 
ATOM    106  CG2 ILE K  13      -0.974  35.145   3.321  0.00  0.00    +0.002 C 
ATOM    107  CD1 ILE K  13      -0.592  32.128   4.059  0.00  0.00    +0.000 C 
ATOM    108  N   PRO K  14       0.854  37.803   3.428  0.00  0.00    -0.272 N 
ATOM    109  CA  PRO K  14       0.496  39.159   3.879  0.00  0.00    +0.154 C 
ATOM    110  C   PRO K  14      -0.711  39.166   4.805  0.00  0.00    +0.260 C 
ATOM    111  O   PRO K  14      -1.698  38.479   4.529  0.00  0.00    -0.272 OA
ATOM    112  CB  PRO K  14       0.157  39.890   2.573  0.00  0.00    +0.031 C 
ATOM    113  CG  PRO K  14       0.857  39.134   1.515  0.00  0.00    +0.024 C 
ATOM    114  CD  PRO K  14       0.807  37.694   1.960  0.00  0.00    +0.094 C 
ATOM    115  N   GLU K  15      -0.634  39.957   5.873  0.00  0.00    -0.196 N 
ATOM    116  CA  GLU K  15      -1.689  40.026   6.890  0.00  0.00    +0.173 C 
ATOM    117  C   GLU K  15      -3.077  40.237   6.268  0.00  0.00    +0.262 C 
ATOM    118  O   GLU K  15      -4.032  39.552   6.638  0.00  0.00    -0.271 OA
ATOM    119  CB  GLU K  15      -1.365  41.131   7.902  0.00  0.00    +0.043 C 
ATOM    120  CG  GLU K  15      -1.980  40.923   9.278  0.00  0.00    +0.116 C 
ATOM    121  CD  GLU K  15      -1.405  41.872  10.322  0.00  0.00    +0.365 C 
ATOM    122  OE1 GLU K  15      -0.937  42.967   9.942  0.00  0.00    -0.246 OA
ATOM    123  OE2 GLU K  15      -1.412  41.519  11.520  0.00  0.00    -0.246 OA
ATOM    124  N   LYS K  16      -3.173  41.140   5.288  0.00  0.00    -0.196 N 
ATOM    125  CA  LYS K  16      -4.459  41.445   4.625  0.00  0.00    +0.173 C 
ATOM    126  C   LYS K  16      -5.008  40.310   3.745  0.00  0.00    +0.262 C 
ATOM    127  O   LYS K  16      -6.147  40.379   3.286  0.00  0.00    -0.271 OA
ATOM    128  CB  LYS K  16      -4.345  42.728   3.785  0.00  0.00    +0.031 C 
ATOM    129  CG  LYS K  16      -3.623  42.546   2.460  0.00  0.00    +0.004 C 
ATOM    130  CD  LYS K  16      -3.448  43.863   1.725  0.00  0.00    +0.021 C 
ATOM    131  CE  LYS K  16      -2.839  43.644   0.348  0.00  0.00    +0.109 C 
ATOM    132  NZ  LYS K  16      -2.708  44.914  -0.416  0.00  0.00    -0.131 N 
ATOM    133  N   ASN K  17      -4.189  39.292   3.483  0.00  0.00    -0.196 N 
ATOM    134  CA  ASN K  17      -4.613  38.126   2.711  0.00  0.00    +0.182 C 
ATOM    135  C   ASN K  17      -4.845  36.893   3.592  0.00  0.00    +0.262 C 
ATOM    136  O   ASN K  17      -5.261  35.850   3.082  0.00  0.00    -0.271 OA
ATOM    137  CB  ASN K  17      -3.570  37.809   1.632  0.00  0.00    +0.120 C 
ATOM    138  CG  ASN K  17      -3.563  38.826   0.496  0.00  0.00    +0.263 C 
ATOM    139  OD1 ASN K  17      -3.954  39.977   0.676  0.00  0.00    -0.272 OA
ATOM    140  ND2 ASN K  17      -3.120  38.396  -0.686  0.00  0.00    -0.088 N 
ATOM    141  N   ARG K  18      -4.570  37.016   4.896  0.00  0.00    -0.196 N 
ATOM    142  CA  ARG K  18      -4.746  35.926   5.872  0.00  0.00    +0.171 C 
ATOM    143  C   ARG K  18      -6.087  36.062   6.586  0.00  0.00    +0.246 C 
ATOM    144  O   ARG K  18      -6.442  37.157   7.006  0.00  0.00    -0.273 OA
ATOM    145  CB  ARG K  18      -3.644  35.964   6.943  0.00  0.00    +0.033 C 
ATOM    146  CG  ARG K  18      -2.232  35.779   6.429  0.00  0.00    +0.029 C 
ATOM    147  CD  ARG K  18      -1.236  35.410   7.523  0.00  0.00    +0.129 C 
ATOM    148  NE  ARG K  18      -1.301  36.277   8.706  0.00  0.00    -0.234 N 
ATOM    149  CZ  ARG K  18      -0.293  37.002   9.199  0.00  0.00    +0.284 C 
ATOM    150  NH1 ARG K  18       0.914  37.002   8.636  0.00  0.00    -0.104 N 
ATOM    151  NH2 ARG K  18      -0.492  37.732  10.286  0.00  0.00    -0.104 N 
ATOM    152  N   PRO K  19      -6.845  34.961   6.732  0.00  0.00    -0.272 N 
ATOM    153  CA  PRO K  19      -6.621  33.611   6.188  0.00  0.00    +0.154 C 
ATOM    154  C   PRO K  19      -6.846  33.616   4.690  0.00  0.00    +0.260 C 
ATOM    155  O   PRO K  19      -7.481  34.543   4.172  0.00  0.00    -0.272 OA
ATOM    156  CB  PRO K  19      -7.691  32.777   6.897  0.00  0.00    +0.031 C 
ATOM    157  CG  PRO K  19      -8.777  33.750   7.200  0.00  0.00    +0.024 C 
ATOM    158  CD  PRO K  19      -8.090  35.027   7.512  0.00  0.00    +0.094 C 
ATOM    159  N   LEU K  20      -6.319  32.611   3.994  0.00  0.00    -0.196 N 
ATOM    160  CA  LEU K  20      -6.625  32.436   2.576  0.00  0.00    +0.173 C 
ATOM    161  C   LEU K  20      -8.147  32.326   2.408  0.00  0.00    +0.262 C 
ATOM    162  O   LEU K  20      -8.774  31.423   2.948  0.00  0.00    -0.271 OA
ATOM    163  CB  LEU K  20      -5.916  31.194   2.013  0.00  0.00    +0.031 C 
ATOM    164  CG  LEU K  20      -4.387  31.321   1.952  0.00  0.00    +0.002 C 
ATOM    165  CD2 LEU K  20      -3.766  30.070   1.390  0.00  0.00    +0.000 C 
ATOM    166  CD1 LEU K  20      -3.933  32.535   1.145  0.00  0.00    +0.000 C 
ATOM    167  N   UNK K  21      -8.736  33.254   1.655  0.00  0.00    -0.196 N 
ATOM    168  C   UNK K  21     -10.190  33.348   1.545  0.00  0.00    +0.173 C 
ATOM    169  C   UNK K  21     -10.831  32.140   0.829  0.00  0.00    +0.262 C 
ATOM    170  O   UNK K  21     -10.255  31.585  -0.102  0.00  0.00    -0.271 OA
ATOM    171  C   UNK K  21     -10.599  34.646   0.824  0.00  0.00    +0.031 C 
ATOM    172  C   UNK K  21     -10.379  35.882   1.663  0.00  0.00    +0.002 C 
ATOM    173  C   UNK K  21     -10.867  37.142   0.977  0.00  0.00    +0.000 C 
ATOM    174  N   GLY K  22     -12.016  31.741   1.274  0.00  0.00    -0.194 N 
ATOM    175  CA  GLY K  22     -12.762  30.657   0.642  0.00  0.00    +0.201 C 
ATOM    176  C   GLY K  22     -12.241  29.246   0.920  0.00  0.00    +0.264 C 
ATOM    177  O   GLY K  22     -12.736  28.264   0.347  0.00  0.00    -0.271 OA
ATOM    178  N   ARG K  23     -11.277  29.144   1.825  0.00  0.00    -0.196 N 
ATOM    179  CA  ARG K  23     -10.618  27.900   2.188  0.00  0.00    +0.173 C 
ATOM    180  C   ARG K  23     -10.555  27.836   3.707  0.00  0.00    +0.262 C 
ATOM    181  O   ARG K  23     -10.420  28.872   4.372  0.00  0.00    -0.271 OA
ATOM    182  CB  ARG K  23      -9.199  27.839   1.596  0.00  0.00    +0.033 C 
ATOM    183  CG  ARG K  23      -9.170  27.562   0.116  0.00  0.00    +0.029 C 
ATOM    184  CD  ARG K  23      -7.990  28.205  -0.583  0.00  0.00    +0.129 C 
ATOM    185  NE  ARG K  23      -8.139  29.648  -0.656  0.00  0.00    -0.234 N 
ATOM    186  CZ  ARG K  23      -7.294  30.478  -1.252  0.00  0.00    +0.284 C 
ATOM    187  NH1 ARG K  23      -6.217  30.011  -1.882  0.00  0.00    -0.104 N 
ATOM    188  NH2 ARG K  23      -7.538  31.790  -1.236  0.00  0.00    -0.104 N 
ATOM    189  N   ILE K  24     -10.606  26.626   4.253  0.00  0.00    -0.196 N 
ATOM    190  CA  ILE K  24     -10.391  26.420   5.688  0.00  0.00    +0.173 C 
ATOM    191  C   ILE K  24      -8.882  26.380   5.905  0.00  0.00    +0.262 C 
ATOM    192  O   ILE K  24      -8.185  25.600   5.259  0.00  0.00    -0.271 OA
ATOM    193  CB  ILE K  24     -11.048  25.118   6.195  0.00  0.00    +0.029 C 
ATOM    194  CG1 ILE K  24     -12.530  25.107   5.854  0.00  0.00    +0.002 C 
ATOM    195  CG2 ILE K  24     -10.787  24.912   7.680  0.00  0.00    +0.002 C 
ATOM    196  CD1 ILE K  24     -13.148  23.745   5.984  0.00  0.00    +0.000 C 
ATOM    197  N   ASN K  25      -8.361  27.241   6.779  0.00  0.00    -0.196 N 
ATOM    198  CA  ASN K  25      -6.920  27.367   6.968  0.00  0.00    +0.182 C 
ATOM    199  C   ASN K  25      -6.474  26.681   8.247  0.00  0.00    +0.262 C 
ATOM    200  O   ASN K  25      -6.878  27.104   9.343  0.00  0.00    -0.271 OA
ATOM    201  CB  ASN K  25      -6.494  28.835   7.096  0.00  0.00    +0.120 C 
ATOM    202  CG  ASN K  25      -6.590  29.649   5.788  0.00  0.00    +0.263 C 
ATOM    203  OD1 ASN K  25      -5.644  30.409   5.444  0.00  0.00    -0.272 OA
ATOM    204  ND2 ASN K  25      -7.739  29.577   5.108  0.00  0.00    -0.088 N 
ATOM    205  N   LEU K  26      -5.586  25.697   8.121  0.00  0.00    -0.196 N 
ATOM    206  CA  LEU K  26      -5.061  24.948   9.268  0.00  0.00    +0.173 C 
ATOM    207  C   LEU K  26      -3.544  25.110   9.343  0.00  0.00    +0.262 C 
ATOM    208  O   LEU K  26      -2.832  24.869   8.355  0.00  0.00    -0.271 OA
ATOM    209  CB  LEU K  26      -5.474  23.460   9.191  0.00  0.00    +0.031 C 
ATOM    210  CG  LEU K  26      -5.139  22.523  10.372  0.00  0.00    +0.002 C 
ATOM    211  CD2 LEU K  26      -6.118  21.336  10.479  0.00  0.00    +0.000 C 
ATOM    212  CD1 LEU K  26      -3.669  22.019  10.379  0.00  0.00    +0.000 C 
ATOM    213  N   VAL K  27      -3.055  25.540  10.513  0.00  0.00    -0.196 N 
ATOM    214  CA  VAL K  27      -1.609  25.690  10.703  0.00  0.00    +0.173 C 
ATOM    215  C   VAL K  27      -1.090  24.536  11.552  0.00  0.00    +0.262 C 
ATOM    216  O   VAL K  27      -1.718  24.138  12.560  0.00  0.00    -0.271 OA
ATOM    217  CB  VAL K  27      -1.250  27.030  11.381  0.00  0.00    +0.029 C 
ATOM    218  CG2 VAL K  27       0.250  27.097  11.690  0.00  0.00    +0.002 C 
ATOM    219  CG1 VAL K  27      -1.675  28.202  10.496  0.00  0.00    +0.002 C 
ATOM    220  N   LEU K  28       0.061  24.011  11.158  0.00  0.00    -0.196 N 
ATOM    221  CA  LEU K  28       0.764  23.046  11.974  0.00  0.00    +0.173 C 
ATOM    222  C   LEU K  28       1.763  23.773  12.899  0.00  0.00    +0.262 C 
ATOM    223  O   LEU K  28       2.520  24.641  12.442  0.00  0.00    -0.271 OA
ATOM    224  CB  LEU K  28       1.484  22.040  11.072  0.00  0.00    +0.031 C 
ATOM    225  CG  LEU K  28       0.620  21.216  10.104  0.00  0.00    +0.002 C 
ATOM    226  CD1 LEU K  28       1.467  20.263   9.276  0.00  0.00    +0.000 C 
ATOM    227  CD2 LEU K  28      -0.463  20.430  10.854  0.00  0.00    +0.000 C 
ATOM    228  N   UNK K  29       1.746  23.442  14.196  0.00  0.00    -0.194 N 
ATOM    229  C   UNK K  29       2.753  23.936  15.151  0.00  0.00    +0.205 C 
ATOM    230  C   UNK K  29       2.774  23.017  16.378  0.00  0.00    +0.264 C 
ATOM    231  O   UNK K  29       1.727  22.549  16.811  0.00  0.00    -0.271 OA
ATOM    232  C   UNK K  29       2.474  25.397  15.568  0.00  0.00    +0.213 C 
ATOM    233  O   UNK K  29       3.234  25.801  16.722  0.00  0.00    -0.218 OA
ATOM    234  N   UNK K  29       3.971  22.765  16.912  0.00  0.00    -0.196 N 
ATOM    235  C   UNK K  29       4.150  21.999  18.154  0.00  0.00    +0.173 C 
ATOM    236  C   UNK K  29       4.073  22.894  19.387  0.00  0.00    +0.262 C 
ATOM    237  O   UNK K  29       3.854  22.408  20.500  0.00  0.00    -0.271 OA
ATOM    238  C   UNK K  29       5.503  21.282  18.142  0.00  0.00    +0.033 C 
ATOM    239  C   UNK K  29       5.572  20.120  17.176  0.00  0.00    +0.029 C 
ATOM    240  C   UNK K  29       6.977  19.559  17.030  0.00  0.00    +0.129 C 
ATOM    241  N   UNK K  29       7.082  18.722  15.830  0.00  0.00    -0.234 N 
ATOM    242  C   UNK K  29       7.455  19.149  14.622  0.00  0.00    +0.284 C 
ATOM    243  N   UNK K  29       7.786  20.420  14.414  0.00  0.00    -0.104 N 
ATOM    244  N   UNK K  29       7.507  18.293  13.605  0.00  0.00    -0.104 N 
ATOM    245  N   UNK K  29       4.265  24.197  19.188  0.00  0.00    -0.196 N 
ATOM    246  C   UNK K  29       4.438  25.137  20.293  0.00  0.00    +0.173 C 
ATOM    247  C   UNK K  29       3.183  25.962  20.601  0.00  0.00    +0.262 C 
ATOM    248  O   UNK K  29       2.928  26.290  21.761  0.00  0.00    -0.271 OA
ATOM    249  C   UNK K  29       5.610  26.074  19.988  0.00  0.00    +0.043 C 
ATOM    250  C   UNK K  29       6.957  25.369  19.831  0.00  0.00    +0.116 C 
ATOM    251  C   UNK K  29       7.506  24.839  21.148  0.00  0.00    +0.365 C 
ATOM    252  O   UNK K  29       7.532  25.597  22.145  0.00  0.00    -0.246 OA
ATOM    253  O   UNK K  29       7.919  23.660  21.186  0.00  0.00    -0.246 OA
ATOM    254  N   UNK K  29       2.407  26.305  19.573  0.00  0.00    -0.196 N 
ATOM    255  C   UNK K  29       1.212  27.122  19.776  0.00  0.00    +0.173 C 
ATOM    256  C   UNK K  29       0.147  26.319  20.522  0.00  0.00    +0.262 C 
ATOM    257  O   UNK K  29       0.139  25.097  20.491  0.00  0.00    -0.271 OA
ATOM    258  C   UNK K  29       0.664  27.642  18.436  0.00  0.00    +0.031 C 
ATOM    259  C   UNK K  29       1.567  28.597  17.640  0.00  0.00    +0.002 C 
ATOM    260  C   UNK K  29       0.988  28.833  16.246  0.00  0.00    +0.000 C 
ATOM    261  C   UNK K  29       1.776  29.930  18.366  0.00  0.00    +0.000 C 
ATOM    262  N   UNK K  29      -0.726  27.015  21.229  0.00  0.00    -0.196 N 
ATOM    263  C   UNK K  29      -1.840  26.367  21.917  0.00  0.00    +0.173 C 
ATOM    264  C   UNK K  29      -3.154  26.700  21.230  0.00  0.00    +0.262 C 
ATOM    265  O   UNK K  29      -4.150  26.003  21.420  0.00  0.00    -0.271 OA
ATOM    266  C   UNK K  29      -1.884  26.804  23.375  0.00  0.00    +0.033 C 
ATOM    267  N   UNK K  29      -3.147  27.771  20.438  0.00  0.00    -0.196 N 
ATOM    268  C   UNK K  29      -4.302  28.164  19.654  0.00  0.00    +0.172 C 
ATOM    269  C   UNK K  29      -3.827  28.622  18.285  0.00  0.00    +0.246 C 
ATOM    270  O   UNK K  29      -2.661  28.997  18.114  0.00  0.00    -0.273 OA
ATOM    271  C   UNK K  29      -5.083  29.274  20.361  0.00  0.00    +0.043 C 
ATOM    272  C   UNK K  29      -4.332  30.589  20.514  0.00  0.00    +0.116 C 
ATOM    273  C   UNK K  29      -4.930  31.491  21.580  0.00  0.00    +0.365 C 
ATOM    274  O   UNK K  29      -6.025  31.178  22.094  0.00  0.00    -0.246 OA
ATOM    275  O   UNK K  29      -4.300  32.513  21.919  0.00  0.00    -0.246 OA
ATOM    276  N   UNK K  29      -4.730  28.601  17.300  0.00  0.00    -0.272 N 
ATOM    277  C   UNK K  29      -4.280  28.987  15.964  0.00  0.00    +0.152 C 
ATOM    278  C   UNK K  29      -3.743  30.425  15.977  0.00  0.00    +0.244 C 
ATOM    279  O   UNK K  29      -4.197  31.234  16.791  0.00  0.00    -0.273 OA
ATOM    280  C   UNK K  29      -5.554  28.900  15.120  0.00  0.00    +0.031 C 
ATOM    281  C   UNK K  29      -6.512  28.072  15.912  0.00  0.00    +0.024 C 
ATOM    282  C   UNK K  29      -6.162  28.260  17.340  0.00  0.00    +0.094 C 
ATOM    283  N   UNK K  29      -2.798  30.751  15.076  0.00  0.00    -0.272 N 
ATOM    284  C   UNK K  29      -2.401  32.146  14.957  0.00  0.00    +0.154 C 
ATOM    285  C   UNK K  29      -3.616  32.989  14.591  0.00  0.00    +0.260 C 
ATOM    286  O   UNK K  29      -4.595  32.459  14.062  0.00  0.00    -0.272 OA
ATOM    287  C   UNK K  29      -1.364  32.149  13.815  0.00  0.00    +0.031 C 
ATOM    288  C   UNK K  29      -0.978  30.723  13.605  0.00  0.00    +0.024 C 
ATOM    289  C   UNK K  29      -2.113  29.881  14.098  0.00  0.00    +0.094 C 
ATOM    290  N   UNK K  29      -3.572  34.278  14.897  0.00  0.00    -0.196 N 
ATOM    291  C   UNK K  29      -4.721  35.157  14.683  0.00  0.00    +0.173 C 
ATOM    292  C   UNK K  29      -5.196  35.188  13.229  0.00  0.00    +0.262 C 
ATOM    293  O   UNK K  29      -4.443  35.538  12.313  0.00  0.00    -0.271 OA
ATOM    294  C   UNK K  29      -4.406  36.579  15.153  0.00  0.00    +0.041 C 
ATOM    295  C   UNK K  29      -5.647  37.428  15.333  0.00  0.00    +0.091 C 
ATOM    296  C   UNK K  29      -6.675  36.781  16.254  0.00  0.00    +0.261 C 
ATOM    297  O   UNK K  29      -6.414  36.555  17.436  0.00  0.00    -0.272 OA
ATOM    298  N   UNK K  29      -7.846  36.479  15.713  0.00  0.00    -0.088 N 
ATOM    299  N   UNK K  29      -6.452  34.802  13.023  0.00  0.00    -0.194 N 
ATOM    300  C   UNK K  29      -7.049  34.718  11.696  0.00  0.00    +0.201 C 
ATOM    301  C   UNK K  29      -7.143  33.309  11.119  0.00  0.00    +0.264 C 
ATOM    302  O   UNK K  29      -7.939  33.074  10.212  0.00  0.00    -0.271 OA
ATOM    303  N   UNK K  29      -6.328  32.378  11.623  0.00  0.00    -0.196 N 
ATOM    304  C   UNK K  29      -6.384  30.990  11.179  0.00  0.00    +0.173 C 
ATOM    305  C   UNK K  29      -7.559  30.278  11.836  0.00  0.00    +0.262 C 
ATOM    306  O   UNK K  29      -8.033  30.698  12.887  0.00  0.00    -0.271 OA
ATOM    307  C   UNK K  29      -5.076  30.258  11.499  0.00  0.00    +0.033 C 
ATOM    308  N   UNK K  29      -8.025  29.183  11.238  0.00  0.00    -0.196 N 
ATOM    309  C   UNK K  29      -9.227  28.520  11.735  0.00  0.00    +0.178 C 
ATOM    310  C   UNK K  29      -8.941  27.355  12.679  0.00  0.00    +0.262 C 
ATOM    311  O   UNK K  29      -9.726  27.097  13.610  0.00  0.00    -0.271 OA
ATOM    312  C   UNK K  29     -10.060  28.027  10.549  0.00  0.00    +0.074 C 
ATOM    313  C   UNK K  29     -10.467  29.111   9.605  0.00  0.00    +0.065 C 
ATOM    314  N   UNK K  29     -10.029  29.158   8.300  0.00  0.00    -0.231 NA
ATOM    315  C   UNK K  29     -11.283  30.177   9.766  0.00  0.00    +0.168 C 
ATOM    316  C   UNK K  29     -10.545  30.217   7.700  0.00  0.00    +0.194 C 
ATOM    317  N   UNK K  29     -11.311  30.852   8.569  0.00  0.00    -0.244 NA
ATOM    318  N   UNK K  29      -7.853  26.636  12.418  0.00  0.00    -0.196 N 
ATOM    319  C   UNK K  29      -7.506  25.420  13.144  0.00  0.00    +0.177 C 
ATOM    320  C   UNK K  29      -6.005  25.290  13.328  0.00  0.00    +0.262 C 
ATOM    321  O   UNK K  29      -5.216  25.882  12.577  0.00  0.00    -0.271 OA
ATOM    322  C   UNK K  29      -8.071  24.165  12.433  0.00  0.00    +0.057 C 
ATOM    323  C   UNK K  29      -9.570  24.102  12.416  0.00  0.00    -0.020 A 
ATOM    324  C   UNK K  29     -10.268  23.590  13.506  0.00  0.00    -0.004 A 
ATOM    325  C   UNK K  29     -10.286  24.556  11.324  0.00  0.00    -0.004 A 
ATOM    326  C   UNK K  29     -11.658  23.532  13.503  0.00  0.00    -0.000 A 
ATOM    327  C   UNK K  29     -11.682  24.509  11.318  0.00  0.00    -0.000 A 
ATOM    328  C   UNK K  29     -12.362  24.001  12.403  0.00  0.00    -0.000 A 
ATOM    329  N   UNK K  29      -5.619  24.549  14.369  0.00  0.00    -0.204 N 
ATOM    330  C   UNK K  29      -4.217  24.270  14.706  0.00  0.00    +0.115 C 
ATOM    331  C   UNK K  29      -3.782  25.052  15.952  0.00  0.00    +0.023 C 
ATOM    332  C   UNK K  29      -2.519  24.571  16.697  0.00  0.00    +0.002 C 
ATOM    333  C   UNK K  29      -1.259  24.908  15.946  0.00  0.00    +0.000 C 
ATOM    334  C   UNK K  29      -2.465  25.175  18.094  0.00  0.00    +0.000 C 
ATOM    335  H   ASN K   1     -12.974  23.229  -0.313  0.00  0.00    +0.000 HD
ATOM    336  H   ASN K   1     -12.346  24.562   0.463  0.00  0.00    +0.000 HD
ATOM    337  H   ASN K   1     -13.051  23.339   1.347  0.00  0.00    +0.000 HD
ATOM    338  H   ASN K   1     -10.863  22.686  -3.880  0.00  0.00    +0.000 HD
ATOM    339  H   ASN K   1      -9.831  23.741  -3.026  0.00  0.00    +0.000 HD
ATOM    340  H   LEU K   2      -9.465  21.597   1.870  0.00  0.00    +0.000 HD
ATOM    341  H   VAL K   3      -7.099  24.665   3.994  0.00  0.00    +0.000 HD
ATOM    342  H   ILE K   4      -3.096  22.842   3.572  0.00  0.00    +0.000 HD
ATOM    343  H   MET K   5      -1.026  24.266   7.196  0.00  0.00    +0.000 HD
ATOM    344  H   GLY K   6       3.304  24.881   6.592  0.00  0.00    +0.000 HD
ATOM    345  H   LYS K   7       4.637  26.310  10.734  0.00  0.00    +0.000 HD
ATOM    346  H   LYS K   7       5.903  30.044  16.782  0.00  0.00    +0.000 HD
ATOM    347  H   LYS K   7       7.337  29.319  16.345  0.00  0.00    +0.000 HD
ATOM    348  H   LYS K   7       5.975  28.392  16.586  0.00  0.00    +0.000 HD
ATOM    349  H   LYS K   8       6.301  28.251   9.862  0.00  0.00    +0.000 HD
ATOM    350  H   LYS K   8      12.713  28.089   9.692  0.00  0.00    +0.000 HD
ATOM    351  H   LYS K   8      13.227  28.863  11.075  0.00  0.00    +0.000 HD
ATOM    352  H   LYS K   8      12.857  29.748   9.713  0.00  0.00    +0.000 HD
ATOM    353  H   THR K   9       5.438  28.526   7.248  0.00  0.00    +0.000 HD
ATOM    354  H   THR K   9       5.850  28.257   3.998  0.00  0.00    +0.000 HD
ATOM    355  H   TRP K  10       2.937  29.568   7.701  0.00  0.00    +0.000 HD
ATOM    356  H   PHE K  11       3.603  32.155   8.804  0.00  0.00    +0.000 HD
ATOM    357  H   SER K  12       4.454  33.130   6.535  0.00  0.00    +0.000 HD
ATOM    358  H   SER K  12       4.325  33.096   2.954  0.00  0.00    +0.000 HD
ATOM    359  H   ILE K  13       2.458  34.354   5.393  0.00  0.00    +0.000 HD
ATOM    360  H   GLU K  15       0.166  40.520   5.985  0.00  0.00    +0.000 HD
ATOM    361  H   LYS K  16      -2.362  41.617   4.998  0.00  0.00    +0.000 HD
ATOM    362  H   LYS K  16      -2.090  45.551   0.087  0.00  0.00    +0.000 HD
ATOM    363  H   LYS K  16      -3.627  45.344  -0.521  0.00  0.00    +0.000 HD
ATOM    364  H   LYS K  16      -2.317  44.718  -1.337  0.00  0.00    +0.000 HD
ATOM    365  H   ASN K  17      -3.265  39.327   3.822  0.00  0.00    +0.000 HD
ATOM    366  H   ASN K  17      -3.094  39.010  -1.455  0.00  0.00    +0.000 HD
ATOM    367  H   ASN K  17      -2.819  37.464  -0.790  0.00  0.00    +0.000 HD
ATOM    368  H   ARG K  18      -4.232  37.882   5.221  0.00  0.00    +0.000 HD
ATOM    369  H   ARG K  18      -2.164  36.329   9.178  0.00  0.00    +0.000 HD
ATOM    370  H   ARG K  18       1.080  36.465   7.828  0.00  0.00    +0.000 HD
ATOM    371  H   ARG K  18       1.640  37.539   9.028  0.00  0.00    +0.000 HD
ATOM    372  H   ARG K  18       0.243  38.270  10.659  0.00  0.00    +0.000 HD
ATOM    373  H   ARG K  18      -1.375  37.736  10.721  0.00  0.00    +0.000 HD
ATOM    374  H   LEU K  20      -5.714  31.976   4.441  0.00  0.00    +0.000 HD
ATOM    375  H   UNK K  21      -8.176  33.894   1.159  0.00  0.00    +0.000 HD
ATOM    376  H   GLY K  22     -12.406  32.192   2.058  0.00  0.00    +0.000 HD
ATOM    377  H   ARG K  23     -10.988  29.967   2.282  0.00  0.00    +0.000 HD
ATOM    378  H   ARG K  23      -8.933  30.042  -0.228  0.00  0.00    +0.000 HD
ATOM    379  H   ARG K  23      -5.595  30.635  -2.322  0.00  0.00    +0.000 HD
ATOM    380  H   ARG K  23      -6.043  29.042  -1.908  0.00  0.00    +0.000 HD
ATOM    381  H   ARG K  23      -6.915  32.412  -1.677  0.00  0.00    +0.000 HD
ATOM    382  H   ARG K  23      -8.341  32.136  -0.784  0.00  0.00    +0.000 HD
ATOM    383  H   ILE K  24     -10.793  25.848   3.679  0.00  0.00    +0.000 HD
ATOM    384  H   ASN K  25      -8.965  27.807   7.311  0.00  0.00    +0.000 HD
ATOM    385  H   ASN K  25      -7.846  30.079   4.268  0.00  0.00    +0.000 HD
ATOM    386  H   ASN K  25      -8.478  29.022   5.447  0.00  0.00    +0.000 HD
ATOM    387  H   LEU K  26      -5.268  25.462   7.219  0.00  0.00    +0.000 HD
ATOM    388  H   VAL K  27      -3.670  25.757  11.250  0.00  0.00    +0.000 HD
ATOM    389  H   LEU K  28       0.445  24.283  10.293  0.00  0.00    +0.000 HD
ATOM    390  H   UNK K  29       1.034  22.846  14.524  0.00  0.00    +0.000 HD
ATOM    391  H   UNK K  29       2.991  25.246  17.480  0.00  0.00    +0.000 HD
ATOM    392  H   UNK K  29       4.771  23.108  16.453  0.00  0.00    +0.000 HD
ATOM    393  H   UNK K  29       6.859  17.768  15.923  0.00  0.00    +0.000 HD
ATOM    394  H   UNK K  29       8.059  20.717  13.516  0.00  0.00    +0.000 HD
ATOM    395  H   UNK K  29       7.758  21.064  15.158  0.00  0.00    +0.000 HD
ATOM    396  H   UNK K  29       7.782  18.605  12.713  0.00  0.00    +0.000 HD
ATOM    397  H   UNK K  29       7.271  17.348  13.745  0.00  0.00    +0.000 HD
ATOM    398  H   UNK K  29       4.291  24.538  18.265  0.00  0.00    +0.000 HD
ATOM    399  H   UNK K  29       2.642  26.004  18.665  0.00  0.00    +0.000 HD
ATOM    400  H   UNK K  29      -0.623  27.992  21.293  0.00  0.00    +0.000 HD
ATOM    401  H   UNK K  29      -2.328  28.315  20.383  0.00  0.00    +0.000 HD
ATOM    402  H   UNK K  29      -2.745  34.653  15.278  0.00  0.00    +0.000 HD
ATOM    403  H   UNK K  29      -8.015  36.676  14.763  0.00  0.00    +0.000 HD
ATOM    404  H   UNK K  29      -8.547  36.057  16.261  0.00  0.00    +0.000 HD
ATOM    405  H   UNK K  29      -7.004  34.562  13.802  0.00  0.00    +0.000 HD
ATOM    406  H   UNK K  29      -5.673  32.635  12.312  0.00  0.00    +0.000 HD
ATOM    407  H   UNK K  29      -7.555  28.818  10.454  0.00  0.00    +0.000 HD
ATOM    408  H   UNK K  29      -7.252  26.940  11.699  0.00  0.00    +0.000 HD
ATOM    409  H   UNK K  29      -6.318  24.166  14.947  0.00  0.00    +0.000 HD
TER 
REMARK  Name = /mnt/c/Personal/tickdock/data/docking/counterdock_calibration/2W3A_protein.pdb
REMARK                            x       y       z     vdW  Elec       q    Type
REMARK                         _______ _______ _______ _____ _____    ______ ____
ATOM      1  C   UNL    24      -4.090  22.792  15.009  0.00  0.00    +0.341 C 
ATOM      2  O   UNL    24      -4.923  22.241  15.741  0.00  0.00    -0.262 OA
ATOM      3  N   UNL    24      -3.041  22.163  14.480  0.00  0.00    -0.080 N 
ATOM      4  H   UNL    24      -2.896  21.207  14.665  0.00  0.00    +0.000 HD
ATOM      5  H   UNL    24      -2.411  22.654  13.904  0.00  0.00    +0.000 HD
TER 
REMARK  Name = /mnt/c/Personal/tickdock/data/docking/counterdock_calibration/2W3A_protein.pdb
REMARK                            x       y       z     vdW  Elec       q    Type
REMARK                         _______ _______ _______ _____ _____    ______ ____
ATOM      1  N   UNL    25      -3.057  22.152  14.462  0.00  0.00    -0.130 N 
ATOM      2  C   UNL    25      -2.779  20.741  14.720  0.00  0.00    +0.130 C 
ATOM      3  H   UNL    25      -3.012  22.673  15.338  0.00  0.00    +0.000 HD
ATOM      4  H   UNL    25      -3.988  22.247  14.057  0.00  0.00    +0.000 HD
ATOM      5  H   UNL    25      -2.364  22.521  13.811  0.00  0.00    +0.000 HD
TER 
REMARK  Name = /mnt/c/Personal/tickdock/data/docking/counterdock_calibration/2W3A_protein.pdb
REMARK                            x       y       z     vdW  Elec       q    Type
REMARK                         _______ _______ _______ _____ _____    ______ ____
ATOM      1  C   UNL    26      -2.786  20.734  14.729  0.00  0.00    +0.000 C 
ATOM      2  C   UNL    26      -3.281  19.900  13.547  0.00  0.00    +0.000 C 
TER 
REMARK  Name = /mnt/c/Personal/tickdock/data/docking/counterdock_calibration/2W3A_protein.pdb
REMARK                            x       y       z     vdW  Elec       q    Type
REMARK                         _______ _______ _______ _____ _____    ______ ____
ATOM      1  C   UNL    21      -1.298  20.488  14.969  0.00  0.00    +0.000 C 
TER 
REMARK  Name = /mnt/c/Personal/tickdock/data/docking/counterdock_calibration/2W3A_protein.pdb
REMARK                            x       y       z     vdW  Elec       q    Type
REMARK                         _______ _______ _______ _____ _____    ______ ____
ATOM      1  C   UNL    28      -1.293  20.485  14.962  0.00  0.00    +0.279 C 
ATOM      2  O   UNL    28      -0.443  21.212  14.457  0.00  0.00    -0.279 OA
TER 
REMARK  Name = /mnt/c/Personal/tickdock/data/docking/counterdock_calibration/2W3A_protein.pdb
REMARK                            x       y       z     vdW  Elec       q    Type
REMARK                         _______ _______ _______ _____ _____    ______ ____
ATOM      1  O   HOH    22      -0.433  21.199  14.445  0.00  0.00    +0.000 OA
ATOM      2  H   HOH    22       0.537  21.199  14.445  0.00  0.00    +0.000 HD
ATOM      3  H   HOH    22      -0.756  20.570  15.108  0.00  0.00    +0.000 HD
TER 
REMARK  Name = /mnt/c/Personal/tickdock/data/docking/counterdock_calibration/2W3A_protein.pdb
REMARK                            x       y       z     vdW  Elec       q    Type
REMARK                         _______ _______ _______ _____ _____    ______ ____
ATOM      1  C   UNL    29      -3.285  19.853  13.583  0.00  0.00    +0.516 C 
ATOM      2  O   UNL    29      -4.701  19.841  13.514  0.00  0.00    -0.258 OA
ATOM      3  O   UNL    29      -2.817  18.565  13.630  0.00  0.00    -0.258 OA
ATOM      4  H   UNL    29      -5.175  20.648  13.476  0.00  0.00    +0.000 HD
ATOM      5  H   UNL    29      -1.895  18.403  13.678  0.00  0.00    +0.000 HD
TER 
REMARK  Name = /mnt/c/Personal/tickdock/data/docking/counterdock_calibration/2W3A_protein.pdb
REMARK                            x       y       z     vdW  Elec       q    Type
REMARK                         _______ _______ _______ _____ _____    ______ ____
ATOM      1  N   UNL    23      -0.999  19.468  15.769  0.00  0.00    -0.123 N 
ATOM      2  CA  UNL    23       0.379  19.146  16.138  0.00  0.00    +0.169 C 
ATOM      3  C   UNL    23       1.134  18.357  15.079  0.00  0.00    +0.259 C 
ATOM      4  O   UNL    23       2.353  18.264  15.150  0.00  0.00    -0.272 OA
ATOM      5  C   UNL    23       0.393  18.366  17.456  0.00  0.00    +0.028 C 
ATOM      6  C   UNL    23      -0.062  19.203  18.633  0.00  0.00    +0.002 C 
ATOM      7  N   UNL    23       0.418  17.784  14.116  0.00  0.00    -0.194 N 
ATOM      8  CA  UNL    23       1.017  16.966  13.052  0.00  0.00    +0.205 C 
ATOM      9  C   UNL    23       0.040  16.786  11.897  0.00  0.00    +0.264 C 
ATOM     10  O   UNL    23      -1.141  17.113  12.035  0.00  0.00    -0.271 OA
ATOM     11  C   UNL    23       1.397  15.590  13.603  0.00  0.00    +0.213 C 
ATOM     12  O   UNL    23       0.246  14.897  14.063  0.00  0.00    -0.218 OA
ATOM     13  N   UNL    23       0.526  16.251  10.773  0.00  0.00    -0.196 N 
ATOM     14  C   UNL    23      -0.309  16.009   9.584  0.00  0.00    +0.173 C 
ATOM     15  C   UNL    23      -1.382  14.953   9.865  0.00  0.00    +0.262 C 
ATOM     16  O   UNL    23      -2.547  15.152   9.542  0.00  0.00    -0.271 OA
ATOM     17  C   UNL    23       0.530  15.547   8.381  0.00  0.00    +0.031 C 
ATOM     18  C   UNL    23      -0.245  15.365   7.069  0.00  0.00    +0.002 C 
ATOM     19  C   UNL    23      -0.827  16.705   6.612  0.00  0.00    +0.000 C 
ATOM     20  C   UNL    23       0.598  14.732   5.955  0.00  0.00    +0.000 C 
ATOM     21  N   UNL    23      -0.967  13.828  10.445  0.00  0.00    -0.196 N 
ATOM     22  C   UNL    23      -1.901  12.753  10.830  0.00  0.00    +0.184 C 
ATOM     23  C   UNL    23      -3.033  13.292  11.713  0.00  0.00    +0.262 C 
ATOM     24  O   UNL    23      -4.198  12.951  11.503  0.00  0.00    -0.271 OA
ATOM     25  C   UNL    23      -1.162  11.616  11.549  0.00  0.00    +0.145 C 
ATOM     26  C   UNL    23      -2.008  10.342  11.685  0.00  0.00    +0.367 C 
ATOM     27  O   UNL    23      -2.491   9.818  10.658  0.00  0.00    -0.246 OA
ATOM     28  O   UNL    23      -2.175   9.859  12.823  0.00  0.00    -0.246 OA
ATOM     29  N   UNL    23      -2.686  14.138  12.679  0.00  0.00    -0.196 N 
ATOM     30  C   UNL    23      -3.678  14.787  13.544  0.00  0.00    +0.184 C 
ATOM     31  C   UNL    23      -4.598  15.720  12.760  0.00  0.00    +0.262 C 
ATOM     32  O   UNL    23      -5.790  15.790  13.020  0.00  0.00    -0.271 OA
ATOM     33  C   UNL    23      -2.990  15.587  14.654  0.00  0.00    +0.145 C 
ATOM     34  C   UNL    23      -2.585  14.729  15.847  0.00  0.00    +0.367 C 
ATOM     35  O   UNL    23      -2.839  13.503  15.849  0.00  0.00    -0.246 OA
ATOM     36  O   UNL    23      -2.019  15.298  16.802  0.00  0.00    -0.246 OA
ATOM     37  N   UNL    23      -4.035  16.461  11.808  0.00  0.00    -0.196 N 
ATOM     38  C   UNL    23      -4.859  17.335  10.978  0.00  0.00    +0.173 C 
ATOM     39  C   UNL    23      -5.925  16.567  10.185  0.00  0.00    +0.262 C 
ATOM     40  O   UNL    23      -7.073  16.999  10.083  0.00  0.00    -0.271 OA
ATOM     41  C   UNL    23      -3.965  18.134  10.020  0.00  0.00    +0.033 C 
ATOM     42  N   UNL    23      -5.540  15.441   9.595  0.00  0.00    -0.196 N 
ATOM     43  C   UNL    23      -6.462  14.691   8.744  0.00  0.00    +0.173 C 
ATOM     44  C   UNL    23      -7.539  14.065   9.601  0.00  0.00    +0.262 C 
ATOM     45  O   UNL    23      -8.695  13.987   9.195  0.00  0.00    -0.271 OA
ATOM     46  C   UNL    23      -5.735  13.624   7.930  0.00  0.00    +0.031 C 
ATOM     47  C   UNL    23      -4.598  14.127   7.031  0.00  0.00    +0.002 C 
ATOM     48  C   UNL    23      -3.931  12.958   6.328  0.00  0.00    +0.000 C 
ATOM     49  C   UNL    23      -5.108  15.152   6.034  0.00  0.00    +0.000 C 
ATOM     50  N   UNL    23      -7.157  13.642  10.797  0.00  0.00    -0.196 N 
ATOM     51  C   UNL    23      -8.125  13.085  11.748  0.00  0.00    +0.173 C 
ATOM     52  C   UNL    23      -9.134  14.140  12.195  0.00  0.00    +0.262 C 
ATOM     53  O   UNL    23     -10.310  13.837  12.383  0.00  0.00    -0.271 OA
ATOM     54  C   UNL    23      -7.412  12.479  12.962  0.00  0.00    +0.031 C 
ATOM     55  C   UNL    23      -6.759  11.129  12.670  0.00  0.00    +0.004 C 
ATOM     56  C   UNL    23      -6.525  10.330  13.939  0.00  0.00    +0.021 C 
ATOM     57  C   UNL    23      -5.949   8.956  13.627  0.00  0.00    +0.109 C 
ATOM     58  N   UNL    23      -6.195   7.984  14.729  0.00  0.00    -0.131 N 
ATOM     59  N   UNL    23      -8.672  15.377  12.357  0.00  0.00    -0.196 N 
ATOM     60  C   UNL    23      -9.542  16.484  12.724  0.00  0.00    +0.173 C 
ATOM     61  C   UNL    23     -10.690  16.670  11.727  0.00  0.00    +0.262 C 
ATOM     62  O   UNL    23     -11.808  17.014  12.123  0.00  0.00    -0.271 OA
ATOM     63  C   UNL    23      -8.731  17.780  12.837  0.00  0.00    +0.031 C 
ATOM     64  C   UNL    23      -9.382  18.993  13.505  0.00  0.00    +0.002 C 
ATOM     65  C   UNL    23      -9.836  18.677  14.910  0.00  0.00    +0.000 C 
ATOM     66  C   UNL    23      -8.397  20.139  13.529  0.00  0.00    +0.000 C 
ATOM     67  N   UNL    23     -10.420  16.432  10.443  0.00  0.00    -0.194 N 
ATOM     68  C   UNL    23     -11.450  16.583   9.403  0.00  0.00    +0.203 C 
ATOM     69  C   UNL    23     -12.608  15.588   9.561  0.00  0.00    +0.264 C 
ATOM     70  O   UNL    23     -13.688  15.823   9.022  0.00  0.00    -0.271 OA
ATOM     71  C   UNL    23     -10.895  16.424   7.966  0.00  0.00    +0.181 C 
ATOM     72  O   UNL    23     -10.605  15.044   7.696  0.00  0.00    -0.221 OA
ATOM     73  C   UNL    23      -9.653  17.280   7.749  0.00  0.00    +0.038 C 
ATOM     74  N   UNL    23     -12.373  14.495  10.292  0.00  0.00    -0.196 N 
ATOM     75  C   UNL    23     -13.399  13.467  10.535  0.00  0.00    +0.173 C 
ATOM     76  C   UNL    23     -14.248  13.717  11.784  0.00  0.00    +0.262 C 
ATOM     77  O   UNL    23     -15.222  12.993  12.026  0.00  0.00    -0.271 OA
ATOM     78  C   UNL    23     -12.747  12.090  10.653  0.00  0.00    +0.043 C 
ATOM     79  C   UNL    23     -11.846  11.729   9.487  0.00  0.00    +0.116 C 
ATOM     80  C   UNL    23     -11.581  10.240   9.382  0.00  0.00    +0.365 C 
ATOM     81  O   UNL    23     -12.561   9.464   9.314  0.00  0.00    -0.246 OA
ATOM     82  O   UNL    23     -10.390   9.853   9.353  0.00  0.00    -0.246 OA
ATOM     83  N   UNL    23     -13.882  14.725  12.575  0.00  0.00    -0.196 N 
ATOM     84  C   UNL    23     -14.611  15.072  13.800  0.00  0.00    +0.172 C 
ATOM     85  C   UNL    23     -15.829  15.945  13.475  0.00  0.00    +0.246 C 
ATOM     86  O   UNL    23     -15.937  16.454  12.355  0.00  0.00    -0.273 OA
ATOM     87  C   UNL    23     -13.667  15.775  14.785  0.00  0.00    +0.041 C 
ATOM     88  C   UNL    23     -12.427  14.965  15.138  0.00  0.00    +0.091 C 
ATOM     89  C   UNL    23     -12.750  13.535  15.514  0.00  0.00    +0.261 C 
ATOM     90  O   UNL    23     -13.583  13.284  16.386  0.00  0.00    -0.272 OA
ATOM     91  N   UNL    23     -12.095  12.588  14.853  0.00  0.00    -0.088 N 
ATOM     92  N   UNL    23     -16.745  16.128  14.450  0.00  0.00    -0.272 N 
ATOM     93  C   UNL    23     -18.046  16.740  14.160  0.00  0.00    +0.154 C 
ATOM     94  C   UNL    23     -17.973  18.084  13.438  0.00  0.00    +0.260 C 
ATOM     95  O   UNL    23     -18.619  18.253  12.397  0.00  0.00    -0.272 OA
ATOM     96  C   UNL    23     -18.670  16.914  15.549  0.00  0.00    +0.031 C 
ATOM     97  C   UNL    23     -18.015  15.886  16.386  0.00  0.00    +0.024 C 
ATOM     98  C   UNL    23     -16.617  15.794  15.883  0.00  0.00    +0.094 C 
ATOM     99  N   UNL    23     -17.173  19.008  13.968  0.00  0.00    -0.196 N 
ATOM    100  C   UNL    23     -17.094  20.371  13.436  0.00  0.00    +0.173 C 
ATOM    101  C   UNL    23     -16.800  20.412  11.932  0.00  0.00    +0.262 C 
ATOM    102  O   UNL    23     -17.447  21.165  11.199  0.00  0.00    -0.271 OA
ATOM    103  C   UNL    23     -16.052  21.198  14.197  0.00  0.00    +0.043 C 
ATOM    104  C   UNL    23     -16.109  22.692  13.860  0.00  0.00    +0.116 C 
ATOM    105  C   UNL    23     -15.367  23.572  14.853  0.00  0.00    +0.365 C 
ATOM    106  O   UNL    23     -14.734  23.039  15.791  0.00  0.00    -0.246 OA
ATOM    107  O   UNL    23     -15.419  24.810  14.692  0.00  0.00    -0.246 OA
ATOM    108  N   UNL    23     -15.847  19.600  11.477  0.00  0.00    -0.196 N 
ATOM    109  C   UNL    23     -15.470  19.570  10.056  0.00  0.00    +0.173 C 
ATOM    110  C   UNL    23     -16.131  18.433   9.260  0.00  0.00    +0.262 C 
ATOM    111  O   UNL    23     -16.068  18.421   8.027  0.00  0.00    -0.271 OA
ATOM    112  C   UNL    23     -13.942  19.493   9.909  0.00  0.00    +0.031 C 
ATOM    113  C   UNL    23     -13.165  20.754  10.307  0.00  0.00    +0.002 C 
ATOM    114  C   UNL    23     -11.664  20.563  10.129  0.00  0.00    +0.000 C 
ATOM    115  C   UNL    23     -13.645  21.949   9.511  0.00  0.00    +0.000 C 
ATOM    116  N   UNL    23     -16.785  17.506   9.961  0.00  0.00    -0.196 N 
ATOM    117  C   UNL    23     -17.294  16.273   9.357  0.00  0.00    +0.173 C 
ATOM    118  C   UNL    23     -17.938  16.479   7.987  0.00  0.00    +0.262 C 
ATOM    119  O   UNL    23     -17.543  15.848   7.003  0.00  0.00    -0.271 OA
ATOM    120  C   UNL    23     -18.287  15.605  10.297  0.00  0.00    +0.033 C 
ATOM    121  N   UNL    23     -18.938  17.351   7.929  0.00  0.00    -0.196 N 
ATOM    122  C   UNL    23     -19.664  17.581   6.678  0.00  0.00    +0.182 C 
ATOM    123  C   UNL    23     -19.145  18.780   5.889  0.00  0.00    +0.262 C 
ATOM    124  O   UNL    23     -19.895  19.359   5.100  0.00  0.00    -0.271 OA
ATOM    125  C   UNL    23     -21.166  17.771   6.962  0.00  0.00    +0.120 C 
ATOM    126  C   UNL    23     -21.906  16.460   7.194  0.00  0.00    +0.263 C 
ATOM    127  O   UNL    23     -23.051  16.469   7.630  0.00  0.00    -0.272 OA
ATOM    128  N   UNL    23     -21.264  15.333   6.895  0.00  0.00    -0.088 N 
ATOM    129  N   UNL    23     -17.868  19.144   6.058  0.00  0.00    -0.196 N 
ATOM    130  C   UNL    23     -17.416  20.459   5.610  0.00  0.00    +0.173 C 
ATOM    131  C   UNL    23     -16.254  20.488   4.620  0.00  0.00    +0.262 C 
ATOM    132  O   UNL    23     -16.150  21.467   3.879  0.00  0.00    -0.271 OA
ATOM    133  C   UNL    23     -17.067  21.332   6.816  0.00  0.00    +0.031 C 
ATOM    134  C   UNL    23     -18.209  21.538   7.813  0.00  0.00    +0.004 C 
ATOM    135  C   UNL    23     -19.479  22.082   7.157  0.00  0.00    +0.021 C 
ATOM    136  C   UNL    23     -20.616  22.192   8.151  0.00  0.00    +0.109 C 
ATOM    137  N   UNL    23     -21.907  22.436   7.463  0.00  0.00    -0.131 N 
ATOM    138  N   UNL    23     -15.398  19.461   4.616  0.00  0.00    -0.196 N 
ATOM    139  C   UNL    23     -14.132  19.507   3.835  0.00  0.00    +0.173 C 
ATOM    140  C   UNL    23     -14.214  18.677   2.550  0.00  0.00    +0.262 C 
ATOM    141  O   UNL    23     -14.674  17.519   2.569  0.00  0.00    -0.271 OA
ATOM    142  C   UNL    23     -12.903  19.036   4.668  0.00  0.00    +0.029 C 
ATOM    143  C   UNL    23     -11.620  19.070   3.842  0.00  0.00    +0.002 C 
ATOM    144  C   UNL    23     -12.726  19.899   5.918  0.00  0.00    +0.002 C 
ATOM    145  N   UNL    23     -13.820  19.283   1.432  0.00  0.00    -0.196 N 
ATOM    146  C   UNL    23     -13.714  18.580   0.173  0.00  0.00    +0.184 C 
ATOM    147  C   UNL    23     -12.265  18.108   0.011  0.00  0.00    +0.262 C 
ATOM    148  O   UNL    23     -11.895  17.062   0.555  0.00  0.00    -0.271 OA
ATOM    149  C   UNL    23     -14.247  19.425  -1.016  0.00  0.00    +0.145 C 
ATOM    150  C   UNL    23     -14.219  18.663  -2.339  0.00  0.00    +0.367 C 
ATOM    151  O   UNL    23     -14.070  17.419  -2.295  0.00  0.00    -0.246 OA
ATOM    152  O   UNL    23     -14.360  19.284  -3.424  0.00  0.00    -0.246 OA
ATOM    153  N   UNL    23     -11.447  18.879  -0.686  0.00  0.00    -0.196 N 
ATOM    154  C   UNL    23     -10.045  18.496  -0.972  0.00  0.00    +0.174 C 
ATOM    155  C   UNL    23      -9.101  19.050   0.101  0.00  0.00    +0.262 C 
ATOM    156  O   UNL    23      -9.373  20.102   0.671  0.00  0.00    -0.271 OA
ATOM    157  C   UNL    23      -9.578  19.080  -2.307  0.00  0.00    +0.043 C 
ATOM    158  C   UNL    23     -10.472  18.906  -3.517  0.00  0.00    +0.060 C 
ATOM    159  S   UNL    23      -9.749  19.693  -4.962  0.00  0.00    -0.139 S 
ATOM    160  C   UNL    23      -8.708  18.390  -5.602  0.00  0.00    +0.069 C 
ATOM    161  N   UNL    23      -7.978  18.355   0.327  0.00  0.00    -0.196 N 
ATOM    162  C   UNL    23      -6.908  18.807   1.226  0.00  0.00    +0.173 C 
ATOM    163  C   UNL    23      -5.665  19.154   0.411  0.00  0.00    +0.262 C 
ATOM    164  O   UNL    23      -5.221  18.357  -0.433  0.00  0.00    -0.271 OA
ATOM    165  C   UNL    23      -6.572  17.736   2.278  0.00  0.00    +0.029 C 
ATOM    166  C   UNL    23      -5.487  18.221   3.213  0.00  0.00    +0.002 C 
ATOM    167  C   UNL    23      -7.827  17.348   3.068  0.00  0.00    +0.002 C 
ATOM    168  N   UNL    23      -5.165  20.366   0.626  0.00  0.00    -0.196 N 
ATOM    169  C   UNL    23      -3.999  20.917  -0.077  0.00  0.00    +0.177 C 
ATOM    170  C   UNL    23      -2.888  21.251   0.912  0.00  0.00    +0.262 C 
ATOM    171  O   UNL    23      -3.089  22.067   1.807  0.00  0.00    -0.271 OA
ATOM    172  C   UNL    23      -4.388  22.182  -0.846  0.00  0.00    +0.055 C 
ATOM    173  C   UNL    23      -5.230  21.879  -2.044  0.00  0.00    -0.016 C 
ATOM    174  C   UNL    23      -6.587  21.833  -2.084  0.00  0.00    +0.148 C 
ATOM    175  C   UNL    23      -4.773  21.588  -3.374  0.00  0.00    +0.011 A 
ATOM    176  N   UNL    23      -7.013  21.508  -3.347  0.00  0.00    -0.266 NA
ATOM    177  C   UNL    23      -5.915  21.391  -4.168  0.00  0.00    +0.076 A 
ATOM    178  C   UNL    23      -3.503  21.525  -3.977  0.00  0.00    +0.001 A 
ATOM    179  C   UNL    23      -5.830  21.075  -5.539  0.00  0.00    +0.019 A 
ATOM    180  C   UNL    23      -3.416  21.212  -5.329  0.00  0.00    +0.000 A 
ATOM    181  C   UNL    23      -4.579  20.987  -6.095  0.00  0.00    +0.002 A 
ATOM    182  N   UNL    23      -1.717  20.628   0.736  0.00  0.00    -0.196 N 
ATOM    183  C   UNL    23      -0.503  21.002   1.506  0.00  0.00    +0.177 C 
ATOM    184  C   UNL    23       0.231  22.113   0.755  0.00  0.00    +0.262 C 
ATOM    185  O   UNL    23       0.576  21.948  -0.395  0.00  0.00    -0.271 OA
ATOM    186  C   UNL    23       0.420  19.789   1.801  0.00  0.00    +0.051 C 
ATOM    187  C   UNL    23      -0.109  18.983   2.998  0.00  0.00    -0.024 C 
ATOM    188  C   UNL    23       1.844  20.209   2.161  0.00  0.00    +0.007 C 
ATOM    189  C   UNL    23      -1.174  18.164   2.725  0.00  0.00    -0.005 C 
ATOM    190  N   UNL    23       0.458  23.247   1.422  0.00  0.00    -0.196 N 
ATOM    191  C   UNL    23       1.003  24.437   0.804  0.00  0.00    +0.173 C 
ATOM    192  C   UNL    23       2.351  24.907   1.403  0.00  0.00    +0.262 C 
ATOM    193  O   UNL    23       2.742  26.048   1.201  0.00  0.00    -0.271 OA
ATOM    194  C   UNL    23      -0.057  25.576   0.718  0.00  0.00    +0.029 C 
ATOM    195  C   UNL    23      -1.332  25.097   0.013  0.00  0.00    +0.002 C 
ATOM    196  C   UNL    23      -0.371  26.143   2.128  0.00  0.00    +0.002 C 
ATOM    197  N   UNL    23       3.060  24.008   2.086  0.00  0.00    -0.194 N 
ATOM    198  C   UNL    23       4.428  24.246   2.549  0.00  0.00    +0.201 C 
ATOM    199  C   UNL    23       4.561  24.372   4.062  0.00  0.00    +0.264 C 
ATOM    200  O   UNL    23       3.555  24.422   4.755  0.00  0.00    -0.271 OA
ATOM    201  N   UNL    23       5.778  24.451   4.604  0.00  0.00    -0.202 N 
ATOM    202  C   UNL    23       7.043  24.547   3.873  0.00  0.00    +0.139 C 
ATOM    203  H   UNL    23      -1.003  19.987  14.891  0.00  0.00    +0.000 HD
ATOM    204  H   UNL    23      -1.423  20.036  16.502  0.00  0.00    +0.000 HD
ATOM    205  H   UNL    23      -1.531  18.605  15.656  0.00  0.00    +0.000 HD
ATOM    206  H   UNL    23      -0.558  17.914  14.116  0.00  0.00    +0.000 HD
ATOM    207  H   UNL    23      -0.175  15.405  14.774  0.00  0.00    +0.000 HD
ATOM    208  H   UNL    23       1.480  16.009  10.738  0.00  0.00    +0.000 HD
ATOM    209  H   UNL    23      -0.006  13.710  10.622  0.00  0.00    +0.000 HD
ATOM    210  H   UNL    23      -1.732  14.335  12.818  0.00  0.00    +0.000 HD
ATOM    211  H   UNL    23      -3.062  16.420  11.664  0.00  0.00    +0.000 HD
ATOM    212  H   UNL    23      -4.624  15.108   9.732  0.00  0.00    +0.000 HD
ATOM    213  H   UNL    23      -6.208  13.702  11.052  0.00  0.00    +0.000 HD
ATOM    214  H   UNL    23      -5.742   8.315  15.581  0.00  0.00    +0.000 HD
ATOM    215  H   UNL    23      -5.812   7.074  14.472  0.00  0.00    +0.000 HD
ATOM    216  H   UNL    23      -7.199   7.898  14.889  0.00  0.00    +0.000 HD
ATOM    217  H   UNL    23      -7.712  15.549  12.224  0.00  0.00    +0.000 HD
ATOM    218  H   UNL    23      -9.513  16.149  10.186  0.00  0.00    +0.000 HD
ATOM    219  H   UNL    23      -9.924  14.730   8.311  0.00  0.00    +0.000 HD
ATOM    220  H   UNL    23     -11.478  14.372  10.684  0.00  0.00    +0.000 HD
ATOM    221  H   UNL    23     -13.092  15.258  12.328  0.00  0.00    +0.000 HD
ATOM    222  H   UNL    23     -11.437  12.834  14.163  0.00  0.00    +0.000 HD
ATOM    223  H   UNL    23     -12.267  11.639  15.053  0.00  0.00    +0.000 HD
ATOM    224  H   UNL    23     -16.616  18.767  14.743  0.00  0.00    +0.000 HD
ATOM    225  H   UNL    23     -15.383  19.004  12.109  0.00  0.00    +0.000 HD
ATOM    226  H   UNL    23     -16.931  17.657  10.923  0.00  0.00    +0.000 HD
ATOM    227  H   UNL    23     -19.195  17.850   8.738  0.00  0.00    +0.000 HD
ATOM    228  H   UNL    23     -20.344  15.368   6.547  0.00  0.00    +0.000 HD
ATOM    229  H   UNL    23     -21.709  14.464   7.022  0.00  0.00    +0.000 HD
ATOM    230  H   UNL    23     -17.233  18.525   6.485  0.00  0.00    +0.000 HD
ATOM    231  H   UNL    23     -21.856  23.313   6.945  0.00  0.00    +0.000 HD
ATOM    232  H   UNL    23     -22.655  22.492   8.154  0.00  0.00    +0.000 HD
ATOM    233  H   UNL    23     -22.098  21.670   6.817  0.00  0.00    +0.000 HD
ATOM    234  H   UNL    23     -15.610  18.656   5.142  0.00  0.00    +0.000 HD
ATOM    235  H   UNL    23     -13.594  20.241   1.464  0.00  0.00    +0.000 HD
ATOM    236  H   UNL    23     -11.782  19.739  -1.027  0.00  0.00    +0.000 HD
ATOM    237  H   UNL    23      -7.864  17.493  -0.135  0.00  0.00    +0.000 HD
ATOM    238  H   UNL    23      -5.605  20.932   1.301  0.00  0.00    +0.000 HD
ATOM    239  H   UNL    23      -1.658  19.900   0.076  0.00  0.00    +0.000 HD
ATOM    240  H   UNL    23       0.244  23.275   2.383  0.00  0.00    +0.000 HD
ATOM    241  H   UNL    23       2.642  23.140   2.289  0.00  0.00    +0.000 HD
ATOM    242  H   UNL    23       5.830  24.444   5.587  0.00  0.00    +0.000 HD
TER 
REMARK  Name = /mnt/c/Personal/tickdock/data/docking/counterdock_calibration/2W3A_protein.pdb
REMARK                            x       y       z     vdW  Elec       q    Type
REMARK                         _______ _______ _______ _____ _____    ______ ____
ATOM      1  C   UNL    24       7.738  23.207   3.684  0.00  0.00    +0.320 C 
ATOM      2  O   UNL    24       7.082  22.154   3.606  0.00  0.00    -0.263 OA
ATOM      3  N   UNL    24       9.065  23.246   3.634  0.00  0.00    -0.196 N 
ATOM      4  C   UNL    24       9.902  22.123   3.226  0.00  0.00    +0.139 C 
ATOM      5  H   UNL    24       9.512  24.086   3.888  0.00  0.00    +0.000 HD
TER 
REMARK  Name = /mnt/c/Personal/tickdock/data/docking/counterdock_calibration/2W3A_protein.pdb
REMARK                            x       y       z     vdW  Elec       q    Type
REMARK                         _______ _______ _______ _____ _____    ______ ____
ATOM      1  N   UNL    25       9.064  23.267   3.593  0.00  0.00    +0.000 N 
ATOM      2  H   UNL    25      10.084  23.267   3.593  0.00  0.00    +0.000 HD
ATOM      3  H   UNL    25       8.724  24.228   3.573  0.00  0.00    +0.000 HD
ATOM      4  H   UNL    25       8.724  22.803   4.435  0.00  0.00    +0.000 HD
ATOM      5  H   UNL    25       8.724  22.769   2.770  0.00  0.00    +0.000 HD
TER 
REMARK  Name = /mnt/c/Personal/tickdock/data/docking/counterdock_calibration/2W3A_protein.pdb
REMARK                            x       y       z     vdW  Elec       q    Type
REMARK                         _______ _______ _______ _____ _____    ______ ____
ATOM      1  C   UNL    26       9.888  22.063   3.366  0.00  0.00    +0.000 C 
TER 
REMARK  Name = /mnt/c/Personal/tickdock/data/docking/counterdock_calibration/2W3A_protein.pdb
REMARK                            x       y       z     vdW  Elec       q    Type
REMARK                         _______ _______ _______ _____ _____    ______ ____
ATOM      1  C   UNL    32       9.487  20.829   4.167  0.00  0.00    +0.341 C 
ATOM      2  O   UNL    32       9.203  19.784   3.588  0.00  0.00    -0.262 OA
ATOM      3  N   UNL    32       9.432  21.058   5.371  0.00  0.00    -0.080 N 
ATOM      4  H   UNL    32       9.131  20.356   5.992  0.00  0.00    +0.000 HD
ATOM      5  H   UNL    32       9.689  21.944   5.716  0.00  0.00    +0.000 HD
TER 
REMARK  Name = /mnt/c/Personal/tickdock/data/docking/counterdock_calibration/2W3A_protein.pdb
REMARK                            x       y       z     vdW  Elec       q    Type
REMARK                         _______ _______ _______ _____ _____    ______ ____
ATOM      1  C   UNL    33       9.626  20.876   4.065  0.00  0.00    +0.279 C 
ATOM      2  O   UNL    33       9.578  19.771   3.527  0.00  0.00    -0.279 OA
TER 
REMARK  Name = /mnt/c/Personal/tickdock/data/docking/counterdock_calibration/2W3A_protein.pdb
REMARK                            x       y       z     vdW  Elec       q    Type
REMARK                         _______ _______ _______ _____ _____    ______ ____
ATOM      1  C   UNL    27      11.360  22.392   3.612  0.00  0.00    +0.000 C 
TER 
REMARK  Name = /mnt/c/Personal/tickdock/data/docking/counterdock_calibration/2W3A_protein.pdb
REMARK                            x       y       z     vdW  Elec       q    Type
REMARK                         _______ _______ _______ _____ _____    ______ ____
ATOM      1  C   UNL    35      11.383  22.511   3.318  0.00  0.00    +0.516 C 
ATOM      2  O   UNL    35      11.767  23.427   2.742  0.00  0.00    -0.258 OA
ATOM      3  O   UNL    35      12.219  21.495   2.790  0.00  0.00    -0.258 OA
ATOM      4  H   UNL    35      11.385  24.269   2.892  0.00  0.00    +0.000 HD
ATOM      5  H   UNL    35      12.128  20.611   3.088  0.00  0.00    +0.000 HD
TER 
REMARK  Name = /mnt/c/Personal/tickdock/data/docking/counterdock_calibration/2W3A_protein.pdb
REMARK                            x       y       z     vdW  Elec       q    Type
REMARK                         _______ _______ _______ _____ _____    ______ ____
ATOM      1  N   UNL    36       9.451  20.952   5.491  0.00  0.00    -0.180 NA
ATOM      2  C   UNL    36       9.230  19.936   6.286  0.00  0.00    +0.180 C 
TER 
REMARK  Name = /mnt/c/Personal/tickdock/data/docking/counterdock_calibration/2W3A_protein.pdb
REMARK                            x       y       z     vdW  Elec       q    Type
REMARK                         _______ _______ _______ _____ _____    ______ ____
ATOM      1  C   UNL    28       9.196  19.798   6.343  0.00  0.00    +0.000 C 
TER 
REMARK  Name = /mnt/c/Personal/tickdock/data/docking/counterdock_calibration/2W3A_protein.pdb
REMARK                            x       y       z     vdW  Elec       q    Type
REMARK                         _______ _______ _______ _____ _____    ______ ____
ATOM      1  C   UNL    38       7.792  19.263   6.170  0.00  0.00    +0.279 C 
ATOM      2  O   UNL    38       7.684  18.097   6.301  0.00  0.00    -0.279 OA
TER 
REMARK  Name = /mnt/c/Personal/tickdock/data/docking/counterdock_calibration/2W3A_protein.pdb
REMARK                            x       y       z     vdW  Elec       q    Type
REMARK                         _______ _______ _______ _____ _____    ______ ____
ATOM      1  C   UNL    29       7.845  19.307   6.137  0.00  0.00    +0.000 C 
TER 
REMARK  Name = /mnt/c/Personal/tickdock/data/docking/counterdock_calibration/2W3A_protein.pdb
REMARK                            x       y       z     vdW  Elec       q    Type
REMARK                         _______ _______ _______ _____ _____    ______ ____
ATOM      1  O   HOH    30       7.555  18.068   6.353  0.00  0.00    +0.000 OA
ATOM      2  H   HOH    30       8.525  18.068   6.353  0.00  0.00    +0.000 HD
ATOM      3  H   HOH    30       7.232  17.183   6.583  0.00  0.00    +0.000 HD
TER 
REMARK  Name = /mnt/c/Personal/tickdock/data/docking/counterdock_calibration/2W3A_protein.pdb
REMARK                            x       y       z     vdW  Elec       q    Type
REMARK                         _______ _______ _______ _____ _____    ______ ____
ATOM      1  C   UNL    40       9.438  20.147   7.814  0.00  0.00    +0.279 C 
ATOM      2  O   UNL    40       9.158  19.354   8.654  0.00  0.00    -0.279 OA
TER 
REMARK  Name = /mnt/c/Personal/tickdock/data/docking/counterdock_calibration/2W3A_protein.pdb
REMARK                            x       y       z     vdW  Elec       q    Type
REMARK                         _______ _______ _______ _____ _____    ______ ____
ATOM      1  C   UNL    41       9.456  20.389   7.740  0.00  0.00    +0.217 C 
ATOM      2  O   UNL    41      10.791  20.487   8.010  0.00  0.00    -0.217 OA
ATOM      3  H   UNL    41      11.245  20.893   7.255  0.00  0.00    +0.000 HD
TER 
REMARK  Name = /mnt/c/Personal/tickdock/data/docking/counterdock_calibration/2W3A_protein.pdb
REMARK                            x       y       z     vdW  Elec       q    Type
REMARK                         _______ _______ _______ _____ _____    ______ ____
ATOM      1  N   UNL    31       6.856  20.139   5.819  0.00  0.00    -0.123 N 
ATOM      2  C   UNL    31       5.480  19.718   5.616  0.00  0.00    +0.169 C 
ATOM      3  C   UNL    31       5.361  18.934   4.295  0.00  0.00    +0.259 C 
ATOM      4  O   UNL    31       4.731  17.870   4.234  0.00  0.00    -0.272 OA
ATOM      5  C   UNL    31       4.519  20.943   5.674  0.00  0.00    +0.027 C 
ATOM      6  C   UNL    31       3.083  20.499   5.604  0.00  0.00    +0.002 C 
ATOM      7  C   UNL    31       4.738  21.718   6.976  0.00  0.00    +0.002 C 
ATOM      8  N   UNL    31       6.016  19.442   3.256  0.00  0.00    -0.196 N 
ATOM      9  C   UNL    31       6.090  18.735   1.979  0.00  0.00    +0.177 C 
ATOM     10  C   UNL    31       6.731  17.359   2.141  0.00  0.00    +0.262 C 
ATOM     11  O   UNL    31       6.217  16.375   1.609  0.00  0.00    -0.271 OA
ATOM     12  C   UNL    31       6.889  19.528   0.943  0.00  0.00    +0.057 C 
ATOM     13  C   UNL    31       6.211  20.789   0.391  0.00  0.00    -0.020 A 
ATOM     14  C   UNL    31       4.920  20.756  -0.129  0.00  0.00    -0.001 A 
ATOM     15  C   UNL    31       6.899  22.005   0.345  0.00  0.00    -0.001 A 
ATOM     16  C   UNL    31       4.315  21.896  -0.635  0.00  0.00    +0.042 A 
ATOM     17  C   UNL    31       6.320  23.136  -0.186  0.00  0.00    +0.042 A 
ATOM     18  C   UNL    31       5.032  23.085  -0.685  0.00  0.00    +0.196 A 
ATOM     19  O   UNL    31       4.465  24.224  -1.224  0.00  0.00    -0.287 OA
ATOM     20  N   UNL    31       7.865  17.289   2.844  0.00  0.00    -0.196 N 
ATOM     21  C   UNL    31       8.571  16.008   3.011  0.00  0.00    +0.173 C 
ATOM     22  C   UNL    31       7.697  14.938   3.662  0.00  0.00    +0.262 C 
ATOM     23  O   UNL    31       7.687  13.786   3.221  0.00  0.00    -0.271 OA
ATOM     24  C   UNL    31       9.848  16.178   3.830  0.00  0.00    +0.031 C 
ATOM     25  C   UNL    31      10.630  14.880   4.005  0.00  0.00    +0.004 C 
ATOM     26  C   UNL    31      11.916  15.105   4.744  0.00  0.00    +0.021 C 
ATOM     27  C   UNL    31      12.394  13.832   5.426  0.00  0.00    +0.109 C 
ATOM     28  N   UNL    31      13.591  14.049   6.286  0.00  0.00    -0.131 N 
ATOM     29  N   UNL    31       6.988  15.334   4.711  0.00  0.00    -0.196 N 
ATOM     30  C   UNL    31       6.086  14.459   5.453  0.00  0.00    +0.173 C 
ATOM     31  C   UNL    31       4.900  14.062   4.592  0.00  0.00    +0.261 C 
ATOM     32  O   UNL    31       4.491  12.892   4.568  0.00  0.00    -0.271 OA
ATOM     33  C   UNL    31       5.604  15.194   6.709  0.00  0.00    +0.043 C 
ATOM     34  C   UNL    31       4.486  14.505   7.487  0.00  0.00    +0.116 C 
ATOM     35  C   UNL    31       4.447  14.916   8.947  0.00  0.00    +0.365 C 
ATOM     36  O   UNL    31       5.521  15.095   9.539  0.00  0.00    -0.246 OA
ATOM     37  O   UNL    31       3.342  15.042   9.515  0.00  0.00    -0.246 OA
ATOM     38  N   UNL    31       4.352  15.020   3.852  0.00  0.00    -0.204 N 
ATOM     39  C   UNL    31       3.195  14.709   3.008  0.00  0.00    +0.115 C 
ATOM     40  C   UNL    31       2.593  15.971   2.412  0.00  0.00    +0.025 C 
ATOM     41  H   UNL    31       7.470  19.326   5.778  0.00  0.00    +0.000 HD
ATOM     42  H   UNL    31       6.944  20.585   6.732  0.00  0.00    +0.000 HD
ATOM     43  H   UNL    31       7.120  20.801   5.090  0.00  0.00    +0.000 HD
ATOM     44  H   UNL    31       6.462  20.315   3.349  0.00  0.00    +0.000 HD
ATOM     45  H   UNL    31       3.592  24.197  -1.564  0.00  0.00    +0.000 HD
ATOM     46  H   UNL    31       8.233  18.104   3.255  0.00  0.00    +0.000 HD
ATOM     47  H   UNL    31      14.368  14.377   5.711  0.00  0.00    +0.000 HD
ATOM     48  H   UNL    31      13.849  13.172   6.738  0.00  0.00    +0.000 HD
ATOM     49  H   UNL    31      13.376  14.747   6.998  0.00  0.00    +0.000 HD
ATOM     50  H   UNL    31       7.075  16.270   5.005  0.00  0.00    +0.000 HD
ATOM     51  H   UNL    31       4.721  15.933   3.871  0.00  0.00    +0.000 HD
TER 
REMARK  Name = /mnt/c/Personal/tickdock/data/docking/counterdock_calibration/2W3A_protein.pdb
REMARK                            x       y       z     vdW  Elec       q    Type
REMARK                         _______ _______ _______ _____ _____    ______ ____
ATOM      1  C   UNL    42       3.557  13.721   1.905  0.00  0.00    +0.341 C 
ATOM      2  O   UNL    42       2.777  12.834   1.607  0.00  0.00    -0.262 OA
ATOM      3  N   UNL    42       4.734  13.880   1.310  0.00  0.00    -0.080 N 
ATOM      4  H   UNL    42       5.010  13.265   0.593  0.00  0.00    +0.000 HD
ATOM      5  H   UNL    42       5.330  14.613   1.586  0.00  0.00    +0.000 HD
TER 
REMARK  Name = /mnt/c/Personal/tickdock/data/docking/counterdock_calibration/2W3A_protein.pdb
REMARK                            x       y       z     vdW  Elec       q    Type
REMARK                         _______ _______ _______ _____ _____    ______ ____
ATOM      1  N   UNL    43       4.732  13.894   1.293  0.00  0.00    -0.130 N 
ATOM      2  C   UNL    43       5.125  13.068   0.157  0.00  0.00    +0.130 C 
ATOM      3  H   UNL    43       4.137  14.657   0.969  0.00  0.00    +0.000 HD
ATOM      4  H   UNL    43       5.565  14.278   1.739  0.00  0.00    +0.000 HD
ATOM      5  H   UNL    43       4.219  13.325   1.966  0.00  0.00    +0.000 HD
TER 
REMARK  Name = /mnt/c/Personal/tickdock/data/docking/counterdock_calibration/2W3A_protein.pdb
REMARK                            x       y       z     vdW  Elec       q    Type
REMARK                         _______ _______ _______ _____ _____    ______ ____
ATOM      1  C   UNL    32       5.144  13.059   0.150  0.00  0.00    +0.000 C 
ATOM      2  C   UNL    32       6.336  13.694  -0.541  0.00  0.00    +0.001 C 
ATOM      3  C   UNL    32       6.153  14.768  -1.512  0.00  0.00    +0.012 C 
ATOM      4  C   UNL    32       6.033  15.060  -1.157  0.00  0.00    +0.058 C 
ATOM      5  S   UNL    32       7.511  15.085  -2.680  0.00  0.00    -0.130 S 
ATOM      6  S   UNL    32       7.487  16.090  -1.430  0.00  0.00    -0.091 S 
ATOM      7  C   UNL    32       8.750  15.761  -1.576  0.00  0.00    +0.080 C 
ATOM      8  C   UNL    32       8.313  15.157  -2.723  0.00  0.00    +0.071 C 
ATOM      9  H   UNL    32       7.275  14.498  -3.884  0.00  0.00    +0.000 HD
TER 
REMARK  Name = /mnt/c/Personal/tickdock/data/docking/counterdock_calibration/2W3A_protein.pdb
REMARK                            x       y       z     vdW  Elec       q    Type
REMARK                         _______ _______ _______ _____ _____    ______ ____
ATOM      1  C   UNL    44       5.357  11.590   0.519  0.00  0.00    +0.279 C 
ATOM      2  O   UNL    44       5.367  10.739  -0.364  0.00  0.00    -0.279 OA
TER 
REMARK  Name = /mnt/c/Personal/tickdock/data/docking/counterdock_calibration/2W3A_protein.pdb
REMARK                            x       y       z     vdW  Elec       q    Type
REMARK                         _______ _______ _______ _____ _____    ______ ____
ATOM      1  C   UNL    33       5.387  11.599   0.514  0.00  0.00    +0.000 C 
TER 
REMARK  Name = /mnt/c/Personal/tickdock/data/docking/counterdock_calibration/2W3A_protein.pdb
REMARK                            x       y       z     vdW  Elec       q    Type
REMARK                         _______ _______ _______ _____ _____    ______ ____
ATOM      1  O   HOH    34       5.271  10.720  -0.346  0.00  0.00    +0.000 OA
ATOM      2  H   HOH    34       6.241  10.720  -0.346  0.00  0.00    +0.000 HD
ATOM      3  H   HOH    34       4.948  10.213   0.415  0.00  0.00    +0.000 HD
TER 
REMARK  Name = /mnt/c/Personal/tickdock/data/docking/counterdock_calibration/2W3A_protein.pdb
REMARK                            x       y       z     vdW  Elec       q    Type
REMARK                         _______ _______ _______ _____ _____    ______ ____
ATOM      1  C   UNL    35       6.408  13.616  -0.535  0.00  0.00    +0.000 C 
TER 
REMARK  Name = /mnt/c/Personal/tickdock/data/docking/counterdock_calibration/2W3A_protein.pdb
REMARK                            x       y       z     vdW  Elec       q    Type
REMARK                         _______ _______ _______ _____ _____    ______ ____
ATOM      1  N   UNL    36       5.603  11.321   1.799  0.00  0.00    -0.123 N 
ATOM      2  C   UNL    36       5.757   9.945   2.300  0.00  0.00    +0.178 C 
ATOM      3  C   UNL    36       4.488   9.390   2.944  0.00  0.00    +0.259 C 
ATOM      4  O   UNL    36       4.493   8.260   3.440  0.00  0.00    -0.272 OA
ATOM      5  C   UNL    36       6.881   9.895   3.336  0.00  0.00    +0.117 C 
ATOM      6  C   UNL    36       8.242  10.197   2.746  0.00  0.00    +0.263 C 
ATOM      7  O   UNL    36       8.593   9.707   1.672  0.00  0.00    -0.272 OA
ATOM      8  N   UNL    36       9.027  10.994   3.458  0.00  0.00    -0.088 N 
ATOM      9  N   UNL    36       3.410  10.172   2.962  0.00  0.00    -0.204 N 
ATOM     10  C   UNL    36       2.150   9.742   3.593  0.00  0.00    +0.122 C 
ATOM     11  C   UNL    36       1.167  10.916   3.671  0.00  0.00    +0.071 C 
ATOM     12  C   UNL    36      -0.055  10.652   4.506  0.00  0.00    +0.082 A 
ATOM     13  N   UNL    36      -0.041  10.694   5.885  0.00  0.00    -0.227 N 
ATOM     14  C   UNL    36      -1.339  10.409   4.152  0.00  0.00    +0.115 A 
ATOM     15  C   UNL    36      -1.258  10.458   6.342  0.00  0.00    +0.199 A 
ATOM     16  N   UNL    36      -2.065  10.282   5.311  0.00  0.00    -0.221 NA
ATOM     17  H   UNL    36       4.853  11.350   1.109  0.00  0.00    +0.000 HD
ATOM     18  H   UNL    36       6.475  11.625   1.366  0.00  0.00    +0.000 HD
ATOM     19  H   UNL    36       5.375  11.942   2.575  0.00  0.00    +0.000 HD
ATOM     20  H   UNL    36       9.924  11.226   3.126  0.00  0.00    +0.000 HD
ATOM     21  H   UNL    36       8.713  11.353   4.319  0.00  0.00    +0.000 HD
ATOM     22  H   UNL    36       3.456  11.061   2.542  0.00  0.00    +0.000 HD
ATOM     23  H   UNL    36       0.752  10.872   6.441  0.00  0.00    +0.000 HD
TER 
REMARK  Name = /mnt/c/Personal/tickdock/data/docking/counterdock_calibration/2W3A_protein.pdb
REMARK                            x       y       z     vdW  Elec       q    Type
REMARK                         _______ _______ _______ _____ _____    ______ ____
ATOM      1  C   UNL    37       1.563   8.591   2.759  0.00  0.00    +0.320 C 
ATOM      2  O   UNL    37       1.631   8.627   1.533  0.00  0.00    -0.263 OA
ATOM      3  N   UNL    37       0.998   7.560   3.413  0.00  0.00    -0.196 N 
ATOM      4  C   UNL    37       0.469   6.439   2.634  0.00  0.00    +0.139 C 
ATOM      5  H   UNL    37       0.941   7.559   4.396  0.00  0.00    +0.000 HD
TER 
REMARK  Name = /mnt/c/Personal/tickdock/data/docking/counterdock_calibration/2W3A_protein.pdb
REMARK                            x       y       z     vdW  Elec       q    Type
REMARK                         _______ _______ _______ _____ _____    ______ ____
ATOM      1  N   UNL    38       1.003   7.559   3.416  0.00  0.00    +0.000 N 
ATOM      2  H   UNL    38       2.023   7.559   3.416  0.00  0.00    +0.000 HD
ATOM      3  H   UNL    38       0.663   7.972   2.548  0.00  0.00    +0.000 HD
ATOM      4  H   UNL    38       0.663   8.105   4.208  0.00  0.00    +0.000 HD
ATOM      5  H   UNL    38       0.663   6.600   3.493  0.00  0.00    +0.000 HD
TER 
REMARK  Name = /mnt/c/Personal/tickdock/data/docking/counterdock_calibration/2W3A_protein.pdb
REMARK                            x       y       z     vdW  Elec       q    Type
REMARK                         _______ _______ _______ _____ _____    ______ ____
ATOM      1  C   UNL    39       0.515   6.441   2.601  0.00  0.00    +0.000 C 
TER 
REMARK  Name = /mnt/c/Personal/tickdock/data/docking/counterdock_calibration/2W3A_protein.pdb
REMARK                            x       y       z     vdW  Elec       q    Type
REMARK                         _______ _______ _______ _____ _____    ______ ____
ATOM      1  C   UNL    49      -0.692   6.814   1.703  0.00  0.00    +0.279 C 
ATOM      2  O   UNL    49      -1.498   7.656   2.070  0.00  0.00    -0.279 OA
TER 
REMARK  Name = /mnt/c/Personal/tickdock/data/docking/counterdock_calibration/2W3A_protein.pdb
REMARK                            x       y       z     vdW  Elec       q    Type
REMARK                         _______ _______ _______ _____ _____    ______ ____
ATOM      1  C   UNL    40      -0.703   6.780   1.726  0.00  0.00    +0.000 C 
TER 
REMARK  Name = /mnt/c/Personal/tickdock/data/docking/counterdock_calibration/2W3A_protein.pdb
REMARK                            x       y       z     vdW  Elec       q    Type
REMARK                         _______ _______ _______ _____ _____    ______ ____
ATOM      1  O   UNL    41      -1.435   7.755   1.982  0.00  0.00    +0.000 OA
ATOM      2  H   UNL    41      -0.465   7.755   1.982  0.00  0.00    +0.000 HD
ATOM      3  H   UNL    41      -1.758   8.332   2.691  0.00  0.00    +0.000 HD
TER 
REMARK  Name = /mnt/c/Personal/tickdock/data/docking/counterdock_calibration/2W3A_protein.pdb
REMARK                            x       y       z     vdW  Elec       q    Type
REMARK                         _______ _______ _______ _____ _____    ______ ____
ATOM      1  C   UNL    42      -0.022   5.462   3.713  0.00  0.00    +0.000 C 
ATOM      2  C   UNL    42       0.695   5.858   4.950  0.00  0.00    +0.000 C 
ATOM      3  C   UNL    42      -0.118   6.135   4.884  0.00  0.00    +0.000 C 
ATOM      4  C   UNL    42       0.772   7.337   4.853  0.00  0.00    +0.000 C 
TER 
REMARK  Name = /mnt/c/Personal/tickdock/data/docking/counterdock_calibration/2W3A_protein.pdb
REMARK                            x       y       z     vdW  Elec       q    Type
REMARK                         _______ _______ _______ _____ _____    ______ ____
ATOM      1  C   UNL    43       0.148   5.381   3.647  0.00  0.00    +0.000 C 
TER 
REMARK  Name = /mnt/c/Personal/tickdock/data/docking/counterdock_calibration/2W3A_protein.pdb
REMARK                            x       y       z     vdW  Elec       q    Type
REMARK                         _______ _______ _______ _____ _____    ______ ____
ATOM      1  C   UNL    44       0.839   7.335   4.863  0.00  0.00    +0.000 C 
TER 
REMARK  Name = /mnt/c/Personal/tickdock/data/docking/counterdock_calibration/2W3A_protein.pdb
REMARK                            x       y       z     vdW  Elec       q    Type
REMARK                         _______ _______ _______ _____ _____    ______ ____
ATOM      1  N   GLY S   1      -0.829   6.071   0.609  0.00  0.00    -0.121 N 
ATOM      2  CA  GLY S   1      -2.020   6.146  -0.243  0.00  0.00    +0.196 C 
ATOM      3  C   GLY S   1      -1.836   7.062  -1.421  0.00  0.00    +0.261 C 
ATOM      4  O   GLY S   1      -0.716   7.390  -1.800  0.00  0.00    -0.272 OA
ATOM      5  N   HIS S   2      -2.954   7.486  -1.995  0.00  0.00    -0.196 N 
ATOM      6  CA  HIS S   2      -2.926   8.302  -3.188  0.00  0.00    +0.179 C 
ATOM      7  C   HIS S   2      -2.546   9.738  -2.858  0.00  0.00    +0.262 C 
ATOM      8  O   HIS S   2      -3.066  10.346  -1.913  0.00  0.00    -0.271 OA
ATOM      9  CB  HIS S   2      -4.278   8.264  -3.904  0.00  0.00    +0.079 C 
ATOM     10  CG  HIS S   2      -4.306   9.133  -5.119  0.00  0.00    +0.082 A 
ATOM     11  ND1 HIS S   2      -4.899  10.373  -5.128  0.00  0.00    -0.227 N 
ATOM     12  CD2 HIS S   2      -3.757   8.962  -6.342  0.00  0.00    +0.115 A 
ATOM     13  CE1 HIS S   2      -4.709  10.932  -6.311  0.00  0.00    +0.199 A 
ATOM     14  NE2 HIS S   2      -4.030  10.095  -7.067  0.00  0.00    -0.221 NA
ATOM     15  N   LEU S   3      -1.666  10.297  -3.690  0.00  0.00    -0.196 N 
ATOM     16  CA  LEU S   3      -1.155  11.647  -3.473  0.00  0.00    +0.173 C 
ATOM     17  C   LEU S   3      -0.789  12.247  -4.796  0.00  0.00    +0.262 C 
ATOM     18  O   LEU S   3      -0.146  11.569  -5.597  0.00  0.00    -0.271 OA
ATOM     19  CB  LEU S   3       0.096  11.563  -2.594  0.00  0.00    +0.031 C 
ATOM     20  CG  LEU S   3       0.051  12.348  -1.299  0.00  0.00    +0.002 C 
ATOM     21  CD2 LEU S   3       0.531  11.553  -0.101  0.00  0.00    +0.000 C 
ATOM     22  CD1 LEU S   3       0.819  13.622  -1.473  0.00  0.00    +0.000 C 
ATOM     23  N   LYS S   4      -1.173  13.503  -5.010  0.00  0.00    -0.196 N 
ATOM     24  CA  LYS S   4      -0.744  14.244  -6.196  0.00  0.00    +0.173 C 
ATOM     25  C   LYS S   4       0.101  15.439  -5.795  0.00  0.00    +0.262 C 
ATOM     26  O   LYS S   4      -0.219  16.121  -4.818  0.00  0.00    -0.271 OA
ATOM     27  CB  LYS S   4      -1.943  14.722  -7.012  0.00  0.00    +0.031 C 
ATOM     28  CG  LYS S   4      -2.635  13.582  -7.719  0.00  0.00    +0.004 C 
ATOM     29  CD  LYS S   4      -3.581  14.014  -8.801  0.00  0.00    +0.021 C 
ATOM     30  CE  LYS S   4      -4.809  14.647  -8.222  0.00  0.00    +0.109 C 
ATOM     31  NZ  LYS S   4      -5.813  13.627  -7.792  0.00  0.00    -0.131 N 
ATOM     32  N   LEU S   5       1.127  15.712  -6.606  0.00  0.00    -0.196 N 
ATOM     33  CA  LEU S   5       2.030  16.862  -6.453  0.00  0.00    +0.173 C 
ATOM     34  C   LEU S   5       1.867  17.766  -7.685  0.00  0.00    +0.262 C 
ATOM     35  O   LEU S   5       2.154  17.362  -8.806  0.00  0.00    -0.271 OA
ATOM     36  CB  LEU S   5       3.498  16.447  -6.321  0.00  0.00    +0.031 C 
ATOM     37  CG  LEU S   5       3.836  15.238  -5.458  0.00  0.00    +0.002 C 
ATOM     38  CD1 LEU S   5       5.300  14.862  -5.643  0.00  0.00    +0.000 C 
ATOM     39  CD2 LEU S   5       3.493  15.550  -4.009  0.00  0.00    +0.000 C 
ATOM     40  N   PHE S   6       1.414  18.989  -7.446  0.00  0.00    -0.196 N 
ATOM     41  CA  PHE S   6       1.254  20.036  -8.459  0.00  0.00    +0.177 C 
ATOM     42  C   PHE S   6       2.470  20.939  -8.325  0.00  0.00    +0.262 C 
ATOM     43  O   PHE S   6       2.569  21.738  -7.392  0.00  0.00    -0.271 OA
ATOM     44  CB  PHE S   6      -0.062  20.800  -8.248  0.00  0.00    +0.057 C 
ATOM     45  CG  PHE S   6      -1.307  19.965  -8.541  0.00  0.00    -0.020 A 
ATOM     46  CD2 PHE S   6      -1.800  19.058  -7.614  0.00  0.00    -0.004 A 
ATOM     47  CD1 PHE S   6      -1.973  20.091  -9.763  0.00  0.00    -0.004 A 
ATOM     48  CE2 PHE S   6      -2.943  18.305  -7.917  0.00  0.00    -0.000 A 
ATOM     49  CE1 PHE S   6      -3.102  19.338 -10.055  0.00  0.00    -0.000 A 
ATOM     50  CZ  PHE S   6      -3.589  18.454  -9.135  0.00  0.00    -0.000 A 
ATOM     51  N   VAL S   7       3.398  20.730  -9.241  0.00  0.00    -0.196 N 
ATOM     52  CA  VAL S   7       4.711  21.346  -9.183  0.00  0.00    +0.173 C 
ATOM     53  C   VAL S   7       4.848  22.318 -10.363  0.00  0.00    +0.262 C 
ATOM     54  O   VAL S   7       4.786  21.907 -11.511  0.00  0.00    -0.271 OA
ATOM     55  CB  VAL S   7       5.883  20.287  -9.276  0.00  0.00    +0.029 C 
ATOM     56  CG1 VAL S   7       7.281  20.954  -9.195  0.00  0.00    +0.002 C 
ATOM     57  CG2 VAL S   7       5.750  19.201  -8.174  0.00  0.00    +0.002 C 
ATOM     58  N   THR S   8       5.043  23.603 -10.070  0.00  0.00    -0.194 N 
ATOM     59  CA  THR S   8       5.372  24.573 -11.101  0.00  0.00    +0.203 C 
ATOM     60  C   THR S   8       6.910  24.650 -11.170  0.00  0.00    +0.264 C 
ATOM     61  O   THR S   8       7.572  25.023 -10.193  0.00  0.00    -0.271 OA
ATOM     62  CB  THR S   8       4.793  25.955 -10.791  0.00  0.00    +0.181 C 
ATOM     63  OG1 THR S   8       3.366  25.850 -10.663  0.00  0.00    -0.221 OA
ATOM     64  CG2 THR S   8       5.209  26.976 -11.886  0.00  0.00    +0.038 C 
ATOM     65  N   ARG S   9       7.463  24.288 -12.326  0.00  0.00    -0.196 N 
ATOM     66  CA  ARG S   9       8.911  24.368 -12.580  0.00  0.00    +0.173 C 
ATOM     67  C   ARG S   9       9.259  25.747 -13.120  0.00  0.00    +0.262 C 
ATOM     68  O   ARG S   9       8.907  26.058 -14.256  0.00  0.00    -0.271 OA
ATOM     69  CB  ARG S   9       9.337  23.285 -13.569  0.00  0.00    +0.033 C 
ATOM     70  CG  ARG S   9       9.095  21.839 -13.092  0.00  0.00    +0.029 C 
ATOM     71  CD  ARG S   9      10.117  21.370 -12.071  0.00  0.00    +0.129 C 
ATOM     72  NE  ARG S   9       9.955  19.947 -11.773  0.00  0.00    -0.234 N 
ATOM     73  CZ  ARG S   9      10.614  19.286 -10.826  0.00  0.00    +0.284 C 
ATOM     74  NH2 ARG S   9      11.483  19.889 -10.042  0.00  0.00    -0.104 N 
ATOM     75  NH1 ARG S   9      10.380  18.015 -10.641  0.00  0.00    -0.104 N 
ATOM     76  N   ILE S  10       9.841  26.593 -12.264  0.00  0.00    -0.196 N 
ATOM     77  CA  ILE S  10      10.391  27.896 -12.683  0.00  0.00    +0.173 C 
ATOM     78  C   ILE S  10      11.730  27.584 -13.382  0.00  0.00    +0.262 C 
ATOM     79  O   ILE S  10      12.648  27.037 -12.754  0.00  0.00    -0.271 OA
ATOM     80  CB  ILE S  10      10.636  28.842 -11.478  0.00  0.00    +0.029 C 
ATOM     81  CG1 ILE S  10       9.344  29.062 -10.668  0.00  0.00    +0.002 C 
ATOM     82  CG2 ILE S  10      11.269  30.162 -11.958  0.00  0.00    +0.002 C 
ATOM     83  CD1 ILE S  10       8.284  29.733 -11.414  0.00  0.00    +0.000 C 
ATOM     84  N   MET S  11      11.843  27.906 -14.672  0.00  0.00    -0.196 N 
ATOM     85  CA  MET S  11      12.949  27.404 -15.509  0.00  0.00    +0.174 C 
ATOM     86  C   MET S  11      14.174  28.357 -15.496  0.00  0.00    +0.262 C 
ATOM     87  O   MET S  11      14.712  28.740 -16.543  0.00  0.00    -0.271 OA
ATOM     88  CB  MET S  11      12.421  27.109 -16.915  0.00  0.00    +0.043 C 
ATOM     89  CG  MET S  11      11.318  26.062 -16.934  0.00  0.00    +0.060 C 
ATOM     90  SD  MET S  11      10.218  26.050 -18.379  0.00  0.00    -0.139 S 
ATOM     91  CE  MET S  11      11.355  25.897 -19.741  0.00  0.00    +0.069 C 
ATOM     92  N   GLN S  12      14.601  28.721 -14.288  0.00  0.00    -0.196 N 
ATOM     93  CA  GLN S  12      15.833  29.519 -14.050  0.00  0.00    +0.173 C 
ATOM     94  C   GLN S  12      16.328  29.219 -12.661  0.00  0.00    +0.262 C 
ATOM     95  O   GLN S  12      15.566  28.746 -11.807  0.00  0.00    -0.271 OA
ATOM     96  CB  GLN S  12      15.600  31.034 -14.073  0.00  0.00    +0.041 C 
ATOM     97  CG  GLN S  12      14.802  31.616 -15.202  0.00  0.00    +0.091 C 
ATOM     98  CD  GLN S  12      14.908  33.157 -15.303  0.00  0.00    +0.261 C 
ATOM     99  OE1 GLN S  12      14.336  33.730 -16.203  0.00  0.00    -0.272 OA
ATOM    100  NE2 GLN S  12      15.668  33.805 -14.413  0.00  0.00    -0.088 N 
ATOM    101  N   ALA S  13      17.596  29.537 -12.415  0.00  0.00    -0.196 N 
ATOM    102  CA  ALA S  13      18.137  29.445 -11.074  0.00  0.00    +0.173 C 
ATOM    103  C   ALA S  13      17.808  30.746 -10.349  0.00  0.00    +0.262 C 
ATOM    104  O   ALA S  13      17.939  31.827 -10.923  0.00  0.00    -0.271 OA
ATOM    105  CB  ALA S  13      19.665  29.270 -11.100  0.00  0.00    +0.033 C 
ATOM    106  N   PHE S  14      17.438  30.634  -9.084  0.00  0.00    -0.196 N 
ATOM    107  CA  PHE S  14      17.287  31.792  -8.189  0.00  0.00    +0.177 C 
ATOM    108  C   PHE S  14      17.930  31.513  -6.830  0.00  0.00    +0.262 C 
ATOM    109  O   PHE S  14      17.758  30.426  -6.269  0.00  0.00    -0.271 OA
ATOM    110  CB  PHE S  14      15.818  32.150  -7.971  0.00  0.00    +0.057 C 
ATOM    111  CG  PHE S  14      15.176  32.864  -9.130  0.00  0.00    -0.020 A 
ATOM    112  CD2 PHE S  14      15.332  34.232  -9.310  0.00  0.00    -0.004 A 
ATOM    113  CD1 PHE S  14      14.416  32.166 -10.045  0.00  0.00    -0.004 A 
ATOM    114  CE2 PHE S  14      14.725  34.889 -10.370  0.00  0.00    -0.000 A 
ATOM    115  CE1 PHE S  14      13.810  32.797 -11.111  0.00  0.00    -0.000 A 
ATOM    116  CZ  PHE S  14      13.955  34.172 -11.281  0.00  0.00    -0.000 A 
ATOM    117  N   UNK S  15      18.646  32.508  -6.305  0.00  0.00    -0.196 N 
ATOM    118  C   UNK S  15      19.220  32.414  -4.976  0.00  0.00    +0.173 C 
ATOM    119  C   UNK S  15      18.125  32.112  -3.951  0.00  0.00    +0.262 C 
ATOM    120  O   UNK S  15      17.113  32.830  -3.870  0.00  0.00    -0.271 OA
ATOM    121  C   UNK S  15      19.995  33.687  -4.609  0.00  0.00    +0.031 C 
ATOM    122  C   UNK S  15      20.928  33.484  -3.460  0.00  0.00    +0.002 C 
ATOM    123  N   UNK S  16      18.323  31.036  -3.192  0.00  0.00    -0.194 N 
ATOM    124  C   UNK S  16      17.321  30.492  -2.259  0.00  0.00    +0.205 C 
ATOM    125  C   UNK S  16      17.960  30.046  -0.940  0.00  0.00    +0.264 C 
ATOM    126  O   UNK S  16      19.162  29.772  -0.892  0.00  0.00    -0.271 OA
ATOM    127  C   UNK S  16      16.583  29.299  -2.902  0.00  0.00    +0.213 C 
ATOM    128  O   UNK S  16      15.960  29.688  -4.114  0.00  0.00    -0.218 OA
ATOM    129  N   UNK S  16      17.164  30.028   0.125  0.00  0.00    -0.196 N 
ATOM    130  C   UNK S  16      17.596  29.515   1.433  0.00  0.00    +0.184 C 
ATOM    131  C   UNK S  16      16.689  28.416   2.000  0.00  0.00    +0.262 C 
ATOM    132  O   UNK S  16      16.912  27.921   3.105  0.00  0.00    -0.271 OA
ATOM    133  C   UNK S  16      17.797  30.661   2.450  0.00  0.00    +0.145 C 
ATOM    134  C   UNK S  16      16.522  31.438   2.751  0.00  0.00    +0.367 C 
ATOM    135  O   UNK S  16      15.399  30.887   2.652  0.00  0.00    -0.246 OA
ATOM    136  O   UNK S  16      16.632  32.633   3.104  0.00  0.00    -0.246 OA
ATOM    137  N   UNK S  16      15.684  28.016   1.223  0.00  0.00    -0.194 N 
ATOM    138  C   UNK S  16      14.742  26.981   1.593  0.00  0.00    +0.203 C 
ATOM    139  C   UNK S  16      14.481  26.182   0.299  0.00  0.00    +0.264 C 
ATOM    140  O   UNK S  16      14.294  26.779  -0.757  0.00  0.00    -0.271 OA
ATOM    141  C   UNK S  16      13.411  27.562   2.134  0.00  0.00    +0.181 C 
ATOM    142  O   UNK S  16      13.646  28.593   3.128  0.00  0.00    -0.221 OA
ATOM    143  C   UNK S  16      12.610  26.435   2.730  0.00  0.00    +0.038 C 
ATOM    144  N   UNK S  16      14.488  24.849   0.376  0.00  0.00    -0.196 N 
ATOM    145  C   UNK S  16      14.465  23.973  -0.818  0.00  0.00    +0.177 C 
ATOM    146  C   UNK S  16      13.395  22.887  -0.747  0.00  0.00    +0.262 C 
ATOM    147  O   UNK S  16      12.993  22.454   0.322  0.00  0.00    -0.271 OA
ATOM    148  C   UNK S  16      15.856  23.316  -1.009  0.00  0.00    +0.057 C 
ATOM    149  C   UNK S  16      16.963  24.313  -1.200  0.00  0.00    -0.020 A 
ATOM    150  C   UNK S  16      17.551  24.942  -0.107  0.00  0.00    -0.004 A 
ATOM    151  C   UNK S  16      17.401  24.653  -2.482  0.00  0.00    -0.004 A 
ATOM    152  C   UNK S  16      18.559  25.891  -0.295  0.00  0.00    -0.000 A 
ATOM    153  C   UNK S  16      18.388  25.605  -2.672  0.00  0.00    -0.000 A 
ATOM    154  C   UNK S  16      18.965  26.219  -1.578  0.00  0.00    -0.000 A 
ATOM    155  N   UNK S  16      12.953  22.458  -1.915  0.00  0.00    -0.196 N 
ATOM    156  C   UNK S  16      11.951  21.397  -2.026  0.00  0.00    +0.176 C 
ATOM    157  C   UNK S  16      12.640  20.052  -1.984  0.00  0.00    +0.246 C 
ATOM    158  O   UNK S  16      13.613  19.835  -2.707  0.00  0.00    -0.273 OA
ATOM    159  C   UNK S  16      11.149  21.560  -3.331  0.00  0.00    +0.057 C 
ATOM    160  C   UNK S  16       9.941  20.660  -3.428  0.00  0.00    -0.020 A 
ATOM    161  C   UNK S  16       8.808  20.917  -2.681  0.00  0.00    -0.004 A 
ATOM    162  C   UNK S  16       9.930  19.585  -4.286  0.00  0.00    -0.004 A 
ATOM    163  C   UNK S  16       7.679  20.094  -2.772  0.00  0.00    -0.000 A 
ATOM    164  C   UNK S  16       8.809  18.770  -4.378  0.00  0.00    -0.000 A 
ATOM    165  C   UNK S  16       7.687  19.027  -3.615  0.00  0.00    -0.000 A 
ATOM    166  N   UNK S  16      12.109  19.122  -1.170  0.00  0.00    -0.272 N 
ATOM    167  C   UNK S  16      12.716  17.810  -1.090  0.00  0.00    +0.154 C 
ATOM    168  C   UNK S  16      12.599  17.036  -2.394  0.00  0.00    +0.260 C 
ATOM    169  O   UNK S  16      11.701  17.289  -3.209  0.00  0.00    -0.272 OA
ATOM    170  C   UNK S  16      11.962  17.130   0.056  0.00  0.00    +0.031 C 
ATOM    171  C   UNK S  16      10.764  17.881   0.281  0.00  0.00    +0.024 C 
ATOM    172  C   UNK S  16      10.938  19.250  -0.285  0.00  0.00    +0.094 C 
ATOM    173  N   UNK S  16      13.538  16.118  -2.596  0.00  0.00    -0.196 N 
ATOM    174  C   UNK S  16      13.630  15.361  -3.843  0.00  0.00    +0.173 C 
ATOM    175  C   UNK S  16      12.388  14.507  -4.093  0.00  0.00    +0.262 C 
ATOM    176  O   UNK S  16      11.866  13.887  -3.161  0.00  0.00    -0.271 OA
ATOM    177  C   UNK S  16      14.882  14.473  -3.821  0.00  0.00    +0.033 C 
ATOM    178  N   UNK S  16      11.887  14.511  -5.335  0.00  0.00    -0.196 N 
ATOM    179  C   UNK S  16      10.771  13.628  -5.729  0.00  0.00    +0.173 C 
ATOM    180  C   UNK S  16      11.301  12.237  -6.074  0.00  0.00    +0.262 C 
ATOM    181  O   UNK S  16      12.084  12.085  -7.008  0.00  0.00    -0.271 OA
ATOM    182  C   UNK S  16       9.949  14.174  -6.922  0.00  0.00    +0.029 C 
ATOM    183  C   UNK S  16       9.274  15.492  -6.534  0.00  0.00    +0.002 C 
ATOM    184  C   UNK S  16       8.896  13.125  -7.391  0.00  0.00    +0.002 C 
ATOM    185  C   UNK S  16       8.678  16.256  -7.718  0.00  0.00    +0.000 C 
ATOM    186  N   UNK S  16      10.837  11.238  -5.324  0.00  0.00    -0.196 N 
ATOM    187  C   UNK S  16      11.254   9.845  -5.476  0.00  0.00    +0.184 C 
ATOM    188  C   UNK S  16      10.492   9.229  -6.653  0.00  0.00    +0.262 C 
ATOM    189  O   UNK S  16       9.293   8.939  -6.558  0.00  0.00    -0.271 OA
ATOM    190  C   UNK S  16      10.965   9.092  -4.170  0.00  0.00    +0.145 C 
ATOM    191  C   UNK S  16      11.513   7.673  -4.153  0.00  0.00    +0.367 C 
ATOM    192  O   UNK S  16      12.023   7.194  -5.188  0.00  0.00    -0.246 OA
ATOM    193  O   UNK S  16      11.417   7.039  -3.079  0.00  0.00    -0.246 OA
ATOM    194  N   UNK S  16      11.191   9.043  -7.771  0.00  0.00    -0.196 N 
ATOM    195  C   UNK S  16      10.570   8.515  -8.990  0.00  0.00    +0.173 C 
ATOM    196  C   UNK S  16      10.275   6.998  -8.910  0.00  0.00    +0.262 C 
ATOM    197  O   UNK S  16       9.596   6.457  -9.770  0.00  0.00    -0.271 OA
ATOM    198  C   UNK S  16      11.406   8.868 -10.230  0.00  0.00    +0.031 C 
ATOM    199  C   UNK S  16      11.593  10.378 -10.474  0.00  0.00    +0.002 C 
ATOM    200  C   UNK S  16      12.581  10.587 -11.597  0.00  0.00    +0.000 C 
ATOM    201  C   UNK S  16      10.258  11.091 -10.794  0.00  0.00    +0.000 C 
ATOM    202  N   UNK S  16      10.759   6.323  -7.871  0.00  0.00    -0.196 N 
ATOM    203  C   UNK S  16      10.275   4.972  -7.554  0.00  0.00    +0.173 C 
ATOM    204  C   UNK S  16       8.808   4.982  -7.132  0.00  0.00    +0.262 C 
ATOM    205  O   UNK S  16       8.105   3.992  -7.309  0.00  0.00    -0.271 OA
ATOM    206  C   UNK S  16      11.091   4.332  -6.433  0.00  0.00    +0.043 C 
ATOM    207  C   UNK S  16      12.276   3.579  -6.912  0.00  0.00    +0.116 C 
ATOM    208  C   UNK S  16      11.938   2.161  -7.312  0.00  0.00    +0.365 C 
ATOM    209  O   UNK S  16      11.061   1.946  -8.187  0.00  0.00    -0.246 OA
ATOM    210  O   UNK S  16      12.538   1.255  -6.727  0.00  0.00    -0.246 OA
ATOM    211  N   UNK S  16       8.363   6.102  -6.564  0.00  0.00    -0.196 N 
ATOM    212  C   UNK S  16       6.994   6.235  -6.055  0.00  0.00    +0.173 C 
ATOM    213  C   UNK S  16       6.097   7.098  -6.956  0.00  0.00    +0.262 C 
ATOM    214  O   UNK S  16       4.931   6.758  -7.199  0.00  0.00    -0.271 OA
ATOM    215  C   UNK S  16       7.036   6.856  -4.656  0.00  0.00    +0.031 C 
ATOM    216  C   UNK S  16       8.002   6.155  -3.697  0.00  0.00    +0.004 C 
ATOM    217  C   UNK S  16       8.030   6.845  -2.353  0.00  0.00    +0.021 C 
ATOM    218  C   UNK S  16       6.927   6.366  -1.455  0.00  0.00    +0.109 C 
ATOM    219  N   UNK S  16       7.395   5.233  -0.614  0.00  0.00    -0.131 N 
ATOM    220  N   UNK S  16       6.643   8.203  -7.454  0.00  0.00    -0.196 N 
ATOM    221  C   UNK S  16       5.862   9.182  -8.213  0.00  0.00    +0.177 C 
ATOM    222  C   UNK S  16       6.070   9.070  -9.711  0.00  0.00    +0.262 C 
ATOM    223  O   UNK S  16       7.196   8.879 -10.185  0.00  0.00    -0.271 OA
ATOM    224  C   UNK S  16       6.199  10.605  -7.747  0.00  0.00    +0.057 C 
ATOM    225  C   UNK S  16       5.663  10.903  -6.379  0.00  0.00    -0.020 A 
ATOM    226  C   UNK S  16       4.352  11.354  -6.225  0.00  0.00    -0.001 A 
ATOM    227  C   UNK S  16       6.437  10.727  -5.239  0.00  0.00    -0.001 A 
ATOM    228  C   UNK S  16       3.820  11.601  -4.979  0.00  0.00    +0.042 A 
ATOM    229  C   UNK S  16       5.906  10.983  -3.977  0.00  0.00    +0.042 A 
ATOM    230  C   UNK S  16       4.586  11.413  -3.866  0.00  0.00    +0.196 A 
ATOM    231  O   UNK S  16       4.025  11.662  -2.638  0.00  0.00    -0.287 OA
ATOM    232  N   UNK S  16       4.968   9.224 -10.436  0.00  0.00    -0.196 N 
ATOM    233  C   UNK S  16       4.917   9.207 -11.893  0.00  0.00    +0.173 C 
ATOM    234  C   UNK S  16       4.578  10.623 -12.357  0.00  0.00    +0.262 C 
ATOM    235  O   UNK S  16       3.658  11.222 -11.809  0.00  0.00    -0.271 OA
ATOM    236  C   UNK S  16       3.805   8.244 -12.302  0.00  0.00    +0.031 C 
ATOM    237  C   UNK S  16       3.734   7.860 -13.745  0.00  0.00    +0.004 C 
ATOM    238  C   UNK S  16       2.732   6.726 -13.876  0.00  0.00    +0.021 C 
ATOM    239  C   UNK S  16       2.403   6.339 -15.303  0.00  0.00    +0.109 C 
ATOM    240  N   UNK S  16       1.479   5.163 -15.327  0.00  0.00    -0.131 N 
ATOM    241  N   UNK S  16       5.319  11.163 -13.329  0.00  0.00    -0.196 N 
ATOM    242  C   UNK S  16       4.927  12.416 -13.994  0.00  0.00    +0.173 C 
ATOM    243  C   UNK S  16       3.805  12.126 -14.966  0.00  0.00    +0.262 C 
ATOM    244  O   UNK S  16       3.948  11.283 -15.869  0.00  0.00    -0.271 OA
ATOM    245  C   UNK S  16       6.104  13.019 -14.764  0.00  0.00    +0.031 C 
ATOM    246  C   UNK S  16       5.903  14.341 -15.525  0.00  0.00    +0.002 C 
ATOM    247  C   UNK S  16       5.450  15.472 -14.603  0.00  0.00    +0.000 C 
ATOM    248  C   UNK S  16       7.165  14.752 -16.282  0.00  0.00    +0.000 C 
ATOM    249  N   UNK S  16       2.678  12.806 -14.802  0.00  0.00    -0.196 N 
ATOM    250  C   UNK S  16       1.504  12.530 -15.632  0.00  0.00    +0.171 C 
ATOM    251  C   UNK S  16       1.678  13.280 -16.936  0.00  0.00    +0.246 C 
ATOM    252  O   UNK S  16       2.194  14.386 -16.939  0.00  0.00    -0.273 OA
ATOM    253  C   UNK S  16       0.212  12.941 -14.920  0.00  0.00    +0.031 C 
ATOM    254  C   UNK S  16      -0.118  12.159 -13.640  0.00  0.00    +0.002 C 
ATOM    255  C   UNK S  16      -1.418  12.639 -13.000  0.00  0.00    +0.000 C 
ATOM    256  C   UNK S  16      -0.208  10.671 -13.932  0.00  0.00    +0.000 C 
ATOM    257  N   UNK S  16       1.274  12.677 -18.064  0.00  0.00    -0.272 N 
ATOM    258  C   UNK S  16       1.506  13.325 -19.348  0.00  0.00    +0.154 C 
ATOM    259  C   UNK S  16       0.670  14.597 -19.514  0.00  0.00    +0.260 C 
ATOM    260  O   UNK S  16       1.120  15.564 -20.138  0.00  0.00    -0.272 OA
ATOM    261  C   UNK S  16       1.104  12.240 -20.353  0.00  0.00    +0.031 C 
ATOM    262  C   UNK S  16       0.142  11.382 -19.627  0.00  0.00    +0.024 C 
ATOM    263  C   UNK S  16       0.630  11.363 -18.214  0.00  0.00    +0.094 C 
ATOM    264  N   UNK S  16      -0.510  14.599 -18.910  0.00  0.00    -0.196 N 
ATOM    265  C   UNK S  16      -1.375  15.768 -18.883  0.00  0.00    +0.173 C 
ATOM    266  C   UNK S  16      -2.362  15.596 -17.752  0.00  0.00    +0.262 C 
ATOM    267  O   UNK S  16      -2.480  14.515 -17.148  0.00  0.00    -0.271 OA
ATOM    268  C   UNK S  16      -2.103  15.932 -20.214  0.00  0.00    +0.043 C 
ATOM    269  C   UNK S  16      -3.089  14.823 -20.485  0.00  0.00    +0.116 C 
ATOM    270  C   UNK S  16      -3.665  14.812 -21.904  0.00  0.00    +0.365 C 
ATOM    271  O   UNK S  16      -3.194  15.595 -22.759  0.00  0.00    -0.246 OA
ATOM    272  O   UNK S  16      -4.591  14.006 -22.155  0.00  0.00    -0.246 OA
ATOM    273  N   UNK S  16      -3.078  16.663 -17.446  0.00  0.00    -0.196 N 
ATOM    274  C   UNK S  16      -4.063  16.604 -16.389  0.00  0.00    +0.176 C 
ATOM    275  C   UNK S  16      -5.173  17.573 -16.731  0.00  0.00    +0.246 C 
ATOM    276  O   UNK S  16      -4.901  18.674 -17.226  0.00  0.00    -0.273 OA
ATOM    277  C   UNK S  16      -3.436  16.909 -15.016  0.00  0.00    +0.057 C 
ATOM    278  C   UNK S  16      -4.253  16.368 -13.886  0.00  0.00    -0.020 A 
ATOM    279  C   UNK S  16      -4.280  14.994 -13.630  0.00  0.00    -0.001 A 
ATOM    280  C   UNK S  16      -5.060  17.186 -13.112  0.00  0.00    -0.001 A 
ATOM    281  C   UNK S  16      -5.070  14.465 -12.628  0.00  0.00    +0.042 A 
ATOM    282  C   UNK S  16      -5.867  16.637 -12.081  0.00  0.00    +0.042 A 
ATOM    283  C   UNK S  16      -5.855  15.279 -11.854  0.00  0.00    +0.196 A 
ATOM    284  O   UNK S  16      -6.654  14.724 -10.861  0.00  0.00    -0.287 OA
ATOM    285  N   UNK S  16      -6.433  17.161 -16.517  0.00  0.00    -0.272 N 
ATOM    286  C   UNK S  16      -7.497  18.088 -16.883  0.00  0.00    +0.154 C 
ATOM    287  C   UNK S  16      -7.425  19.394 -16.124  0.00  0.00    +0.260 C 
ATOM    288  O   UNK S  16      -7.230  19.409 -14.919  0.00  0.00    -0.272 OA
ATOM    289  C   UNK S  16      -8.785  17.330 -16.525  0.00  0.00    +0.031 C 
ATOM    290  C   UNK S  16      -8.388  15.924 -16.403  0.00  0.00    +0.024 C 
ATOM    291  C   UNK S  16      -6.967  15.891 -15.981  0.00  0.00    +0.094 C 
ATOM    292  N   UNK S  16      -7.599  20.491 -16.844  0.00  0.00    -0.194 N 
ATOM    293  C   UNK S  16      -7.571  21.794 -16.218  0.00  0.00    +0.201 C 
ATOM    294  C   UNK S  16      -6.194  22.375 -15.990  0.00  0.00    +0.264 C 
ATOM    295  O   UNK S  16      -6.090  23.458 -15.401  0.00  0.00    -0.271 OA
ATOM    296  N   UNK S  16      -5.133  21.686 -16.449  0.00  0.00    -0.196 N 
ATOM    297  C   UNK S  16      -3.751  22.180 -16.270  0.00  0.00    +0.173 C 
ATOM    298  C   UNK S  16      -3.105  22.389 -17.651  0.00  0.00    +0.261 C 
ATOM    299  O   UNK S  16      -3.117  21.484 -18.472  0.00  0.00    -0.271 OA
ATOM    300  C   UNK S  16      -2.902  21.197 -15.431  0.00  0.00    +0.029 C 
ATOM    301  C   UNK S  16      -1.431  21.671 -15.328  0.00  0.00    +0.002 C 
ATOM    302  C   UNK S  16      -3.553  21.026 -14.054  0.00  0.00    +0.002 C 
ATOM    303  N   UNK S  16      -2.612  23.599 -17.913  0.00  0.00    -0.204 N 
ATOM    304  C   UNK S  16      -1.967  23.919 -19.202  0.00  0.00    +0.115 C 
ATOM    305  C   UNK S  16      -1.673  25.423 -19.334  0.00  0.00    +0.023 C 
ATOM    306  C   UNK S  16      -2.838  26.412 -19.262  0.00  0.00    +0.002 C 
ATOM    307  C   UNK S  16      -2.357  27.865 -19.147  0.00  0.00    +0.000 C 
ATOM    308  C   UNK S  16      -3.759  26.187 -20.477  0.00  0.00    +0.000 C 
ATOM    309  H   GLY S   1      -1.008   5.439   1.389  0.00  0.00    +0.000 HD
ATOM    310  H   GLY S   1      -0.609   7.000   0.968  0.00  0.00    +0.000 HD
ATOM    311  H   GLY S   1      -0.042   5.722   0.063  0.00  0.00    +0.000 HD
ATOM    312  H   HIS S   2      -3.822   7.240  -1.600  0.00  0.00    +0.000 HD
ATOM    313  H   HIS S   2      -5.386  10.779  -4.375  0.00  0.00    +0.000 HD
ATOM    314  H   LEU S   3      -1.353   9.786  -4.471  0.00  0.00    +0.000 HD
ATOM    315  H   LYS S   4      -1.760  13.944  -4.354  0.00  0.00    +0.000 HD
ATOM    316  H   LYS S   4      -6.107  13.078  -8.600  0.00  0.00    +0.000 HD
ATOM    317  H   LYS S   4      -6.623  14.097  -7.387  0.00  0.00    +0.000 HD
ATOM    318  H   LYS S   4      -5.394  13.010  -7.096  0.00  0.00    +0.000 HD
ATOM    319  H   LEU S   5       1.290  15.100  -7.359  0.00  0.00    +0.000 HD
ATOM    320  H   PHE S   6       1.167  19.210  -6.519  0.00  0.00    +0.000 HD
ATOM    321  H   VAL S   7       3.191  20.131  -9.995  0.00  0.00    +0.000 HD
ATOM    322  H   THR S   8       4.963  23.902  -9.135  0.00  0.00    +0.000 HD
ATOM    323  H   THR S   8       2.990  25.523 -11.495  0.00  0.00    +0.000 HD
ATOM    324  H   ARG S   9       6.878  23.952 -13.043  0.00  0.00    +0.000 HD
ATOM    325  H   ARG S   9       9.308  19.440 -12.315  0.00  0.00    +0.000 HD
ATOM    326  H   ARG S   9      11.674  20.847 -10.164  0.00  0.00    +0.000 HD
ATOM    327  H   ARG S   9      11.941  19.382  -9.334  0.00  0.00    +0.000 HD
ATOM    328  H   ARG S   9       9.734  17.545 -11.216  0.00  0.00    +0.000 HD
ATOM    329  H   ARG S   9      10.850  17.527  -9.927  0.00  0.00    +0.000 HD
ATOM    330  H   ILE S  10       9.905  26.336 -11.316  0.00  0.00    +0.000 HD
ATOM    331  H   MET S  11      11.168  28.497 -15.077  0.00  0.00    +0.000 HD
ATOM    332  H   GLN S  12      14.070  28.445 -13.506  0.00  0.00    +0.000 HD
ATOM    333  H   GLN S  12      15.751  34.785 -14.457  0.00  0.00    +0.000 HD
ATOM    334  H   GLN S  12      16.145  33.302 -13.714  0.00  0.00    +0.000 HD
ATOM    335  H   ALA S  13      18.174  29.838 -13.153  0.00  0.00    +0.000 HD
ATOM    336  H   PHE S  14      17.255  29.736  -8.725  0.00  0.00    +0.000 HD
ATOM    337  H   UNK S  15      18.789  33.327  -6.833  0.00  0.00    +0.000 HD
ATOM    338  H   UNK S  16      19.191  30.576  -3.258  0.00  0.00    +0.000 HD
ATOM    339  H   UNK S  16      16.633  30.002  -4.737  0.00  0.00    +0.000 HD
ATOM    340  H   UNK S  16      16.246  30.373   0.034  0.00  0.00    +0.000 HD
ATOM    341  H   UNK S  16      15.575  28.450   0.346  0.00  0.00    +0.000 HD
ATOM    342  H   UNK S  16      14.134  28.215   3.876  0.00  0.00    +0.000 HD
ATOM    343  H   UNK S  16      14.509  24.430   1.266  0.00  0.00    +0.000 HD
ATOM    344  H   UNK S  16      13.309  22.865  -2.738  0.00  0.00    +0.000 HD
ATOM    345  H   UNK S  16      14.193  15.942  -1.883  0.00  0.00    +0.000 HD
ATOM    346  H   UNK S  16      12.274  15.120  -6.005  0.00  0.00    +0.000 HD
ATOM    347  H   UNK S  16      10.175  11.450  -4.627  0.00  0.00    +0.000 HD
ATOM    348  H   UNK S  16      12.150   9.266  -7.779  0.00  0.00    +0.000 HD
ATOM    349  H   UNK S  16      11.452   6.735  -7.306  0.00  0.00    +0.000 HD
ATOM    350  H   UNK S  16       8.976   6.868  -6.483  0.00  0.00    +0.000 HD
ATOM    351  H   UNK S  16       7.683   4.460  -1.214  0.00  0.00    +0.000 HD
ATOM    352  H   UNK S  16       6.637   4.926  -0.005  0.00  0.00    +0.000 HD
ATOM    353  H   UNK S  16       8.186   5.536  -0.046  0.00  0.00    +0.000 HD
ATOM    354  H   UNK S  16       7.602   8.368  -7.308  0.00  0.00    +0.000 HD
ATOM    355  H   UNK S  16       3.136  11.951  -2.579  0.00  0.00    +0.000 HD
ATOM    356  H   UNK S  16       4.121   9.360  -9.953  0.00  0.00    +0.000 HD
ATOM    357  H   UNK S  16       0.611   5.402 -14.847  0.00  0.00    +0.000 HD
ATOM    358  H   UNK S  16       1.921   4.374 -14.856  0.00  0.00    +0.000 HD
ATOM    359  H   UNK S  16       1.274   4.911 -16.294  0.00  0.00    +0.000 HD
ATOM    360  H   UNK S  16       6.148  10.711 -13.607  0.00  0.00    +0.000 HD
ATOM    361  H   UNK S  16       2.630  13.507 -14.112  0.00  0.00    +0.000 HD
ATOM    362  H   UNK S  16      -0.813  13.776 -18.462  0.00  0.00    +0.000 HD
ATOM    363  H   UNK S  16      -2.940  17.503 -17.940  0.00  0.00    +0.000 HD
ATOM    364  H   UNK S  16      -6.641  13.799 -10.712  0.00  0.00    +0.000 HD
ATOM    365  H   UNK S  16      -7.749  20.419 -17.814  0.00  0.00    +0.000 HD
ATOM    366  H   UNK S  16      -5.281  20.832 -16.916  0.00  0.00    +0.000 HD
ATOM    367  H   UNK S  16      -2.680  24.301 -17.226  0.00  0.00    +0.000 HD
TER 
REMARK  Name = /mnt/c/Personal/tickdock/data/docking/counterdock_calibration/2W3A_protein.pdb
REMARK                            x       y       z     vdW  Elec       q    Type
REMARK                         _______ _______ _______ _____ _____    ______ ____
ATOM      1  C   UNL    45      -0.681  23.096 -19.376  0.00  0.00    +0.320 C 
ATOM      2  O   UNL    45       0.063  22.913 -18.400  0.00  0.00    -0.263 OA
ATOM      3  N   UNL    45      -0.417  22.613 -20.591  0.00  0.00    -0.195 N 
ATOM      4  C   UNL    45       0.719  21.745 -20.925  0.00  0.00    +0.151 C 
ATOM      5  C   UNL    45       0.455  20.669 -21.833  0.00  0.00    +0.205 C 
ATOM      6  O   UNL    45       1.637  20.010 -22.249  0.00  0.00    -0.218 OA
ATOM      7  H   UNL    45      -1.032  22.857 -21.320  0.00  0.00    +0.000 HD
ATOM      8  H   UNL    45       2.080  19.624 -21.478  0.00  0.00    +0.000 HD
TER 
REMARK  Name = /mnt/c/Personal/tickdock/data/docking/counterdock_calibration/2W3A_protein.pdb
REMARK                            x       y       z     vdW  Elec       q    Type
REMARK                         _______ _______ _______ _____ _____    ______ ____
ATOM      1  N   UNL    46      -0.436  22.616 -20.605  0.00  0.00    +0.000 N 
ATOM      2  H   UNL    46       0.584  22.616 -20.605  0.00  0.00    +0.000 HD
ATOM      3  H   UNL    46      -0.776  22.119 -21.429  0.00  0.00    +0.000 HD
ATOM      4  H   UNL    46      -0.776  23.577 -20.623  0.00  0.00    +0.000 HD
ATOM      5  H   UNL    46      -0.776  22.151 -19.763  0.00  0.00    +0.000 HD
TER 
REMARK  Name = /mnt/c/Personal/tickdock/data/docking/counterdock_calibration/2W3A_protein.pdb
REMARK                            x       y       z     vdW  Elec       q    Type
REMARK                         _______ _______ _______ _____ _____    ______ ____
ATOM      1  C   UNL    47       0.776  21.787 -20.850  0.00  0.00    +0.000 C 
TER 
REMARK  Name = /mnt/c/Personal/tickdock/data/docking/counterdock_calibration/2W3A_protein.pdb
REMARK                            x       y       z     vdW  Elec       q    Type
REMARK                         _______ _______ _______ _____ _____    ______ ____
ATOM      1  C   UNL    48       1.926  22.474 -21.531  0.00  0.00    +0.217 C 
ATOM      2  C   UNL    48       1.975  22.576 -21.364  0.00  0.00    +0.217 C 
ATOM      3  O   UNL    48       3.027  21.914 -21.548  0.00  0.00    -0.217 OA
ATOM      4  O   UNL    48       3.124  22.185 -21.112  0.00  0.00    -0.217 OA
TER 
REMARK  Name = /mnt/c/Personal/tickdock/data/docking/counterdock_calibration/2W3A_protein.pdb
REMARK                            x       y       z     vdW  Elec       q    Type
REMARK                         _______ _______ _______ _____ _____    ______ ____
ATOM      1  C   UNL    55       0.309  20.631 -21.900  0.00  0.00    +0.217 C 
ATOM      2  O   UNL    55      -0.766  19.838 -21.416  0.00  0.00    -0.217 OA
ATOM      3  H   UNL    55      -0.417  19.011 -21.047  0.00  0.00    +0.000 HD
TER 
REMARK  Name = /mnt/c/Personal/tickdock/data/docking/counterdock_calibration/2W3A_protein.pdb
REMARK                            x       y       z     vdW  Elec       q    Type
REMARK                         _______ _______ _______ _____ _____    ______ ____
ATOM      1  N   ASP V   1       1.731  23.681 -22.071  0.00  0.00    -0.122 N 
ATOM      2  CA  ASP V   1       2.818  24.414 -22.734  0.00  0.00    +0.181 C 
ATOM      3  C   ASP V   1       3.615  25.248 -21.765  0.00  0.00    +0.260 C 
ATOM      4  O   ASP V   1       3.128  25.618 -20.704  0.00  0.00    -0.272 OA
ATOM      5  CB  ASP V   1       2.285  25.328 -23.857  0.00  0.00    +0.142 C 
ATOM      6  CG  ASP V   1       1.617  24.558 -25.005  0.00  0.00    +0.367 C 
ATOM      7  OD2 ASP V   1       1.999  23.393 -25.313  0.00  0.00    -0.246 OA
ATOM      8  OD1 ASP V   1       0.715  25.156 -25.644  0.00  0.00    -0.246 OA
ATOM      9  N   VAL V   2       4.839  25.585 -22.166  0.00  0.00    -0.197 N 
ATOM     10  CA  VAL V   2       5.666  26.516 -21.388  0.00  0.00    +0.173 C 
ATOM     11  C   VAL V   2       4.970  27.888 -21.329  0.00  0.00    +0.262 C 
ATOM     12  O   VAL V   2       4.442  28.384 -22.324  0.00  0.00    -0.271 OA
ATOM     13  CB  VAL V   2       7.112  26.641 -21.953  0.00  0.00    +0.029 C 
ATOM     14  CG2 VAL V   2       7.887  27.780 -21.229  0.00  0.00    +0.002 C 
ATOM     15  CG1 VAL V   2       7.828  25.285 -21.844  0.00  0.00    +0.002 C 
ATOM     16  N   GLN V   3       4.925  28.439 -20.125  0.00  0.00    -0.196 N 
ATOM     17  CA  GLN V   3       4.338  29.745 -19.805  0.00  0.00    +0.173 C 
ATOM     18  C   GLN V   3       5.452  30.779 -19.652  0.00  0.00    +0.262 C 
ATOM     19  O   GLN V   3       6.581  30.416 -19.375  0.00  0.00    -0.271 OA
ATOM     20  CB  GLN V   3       3.596  29.661 -18.477  0.00  0.00    +0.041 C 
ATOM     21  CG  GLN V   3       2.538  28.539 -18.417  0.00  0.00    +0.091 C 
ATOM     22  CD  GLN V   3       1.405  28.776 -19.397  0.00  0.00    +0.261 C 
ATOM     23  OE1 GLN V   3       0.647  29.742 -19.264  0.00  0.00    -0.272 OA
ATOM     24  NE2 GLN V   3       1.264  27.886 -20.381  0.00  0.00    -0.088 N 
ATOM     25  N   GLU V   4       5.097  32.054 -19.744  0.00  0.00    -0.196 N 
ATOM     26  CA  GLU V   4       6.078  33.126 -19.512  0.00  0.00    +0.173 C 
ATOM     27  C   GLU V   4       5.394  34.350 -18.908  0.00  0.00    +0.262 C 
ATOM     28  O   GLU V   4       4.401  34.822 -19.445  0.00  0.00    -0.271 OA
ATOM     29  CB  GLU V   4       6.803  33.507 -20.811  0.00  0.00    +0.043 C 
ATOM     30  CG  GLU V   4       7.906  34.550 -20.573  0.00  0.00    +0.116 C 
ATOM     31  CD  GLU V   4       8.802  34.802 -21.778  0.00  0.00    +0.365 C 
ATOM     32  OE1 GLU V   4       9.168  33.830 -22.472  0.00  0.00    -0.246 OA
ATOM     33  OE2 GLU V   4       9.208  35.970 -22.014  0.00  0.00    -0.246 OA
ATOM     34  N   GLU V   5       5.956  34.880 -17.815  0.00  0.00    -0.196 N 
ATOM     35  CA  GLU V   5       5.460  36.125 -17.227  0.00  0.00    +0.173 C 
ATOM     36  C   GLU V   5       6.652  36.931 -16.759  0.00  0.00    +0.262 C 
ATOM     37  O   GLU V   5       7.590  36.365 -16.193  0.00  0.00    -0.271 OA
ATOM     38  CB  GLU V   5       4.552  35.883 -16.023  0.00  0.00    +0.043 C 
ATOM     39  CG  GLU V   5       3.244  35.196 -16.310  0.00  0.00    +0.116 C 
ATOM     40  CD  GLU V   5       2.375  35.184 -15.080  0.00  0.00    +0.365 C 
ATOM     41  OE1 GLU V   5       1.671  36.214 -14.860  0.00  0.00    -0.246 OA
ATOM     42  OE2 GLU V   5       2.402  34.166 -14.323  0.00  0.00    -0.246 OA
ATOM     43  N   LYS V   6       6.616  38.227 -17.001  0.00  0.00    -0.196 N 
ATOM     44  CA  LYS V   6       7.737  39.104 -16.639  0.00  0.00    +0.173 C 
ATOM     45  C   LYS V   6       9.103  38.552 -17.099  0.00  0.00    +0.262 C 
ATOM     46  O   LYS V   6      10.124  38.697 -16.407  0.00  0.00    -0.271 OA
ATOM     47  CB  LYS V   6       7.723  39.339 -15.126  0.00  0.00    +0.031 C 
ATOM     48  CG  LYS V   6       6.498  40.078 -14.633  0.00  0.00    +0.004 C 
ATOM     49  CD  LYS V   6       6.599  40.312 -13.167  0.00  0.00    +0.021 C 
ATOM     50  CE  LYS V   6       5.521  41.245 -12.624  0.00  0.00    +0.109 C 
ATOM     51  NZ  LYS V   6       5.590  41.136 -11.132  0.00  0.00    -0.131 N 
ATOM     52  N   GLY V   7       9.129  37.949 -18.284  0.00  0.00    -0.194 N 
ATOM     53  CA  GLY V   7      10.360  37.380 -18.847  0.00  0.00    +0.201 C 
ATOM     54  C   GLY V   7      10.877  36.086 -18.248  0.00  0.00    +0.264 C 
ATOM     55  O   GLY V   7      11.946  35.604 -18.660  0.00  0.00    -0.271 OA
ATOM     56  N   ILE V   8      10.125  35.514 -17.304  0.00  0.00    -0.196 N 
ATOM     57  CA  ILE V   8      10.482  34.255 -16.632  0.00  0.00    +0.173 C 
ATOM     58  C   ILE V   8       9.610  33.118 -17.166  0.00  0.00    +0.262 C 
ATOM     59  O   ILE V   8       8.392  33.189 -17.082  0.00  0.00    -0.271 OA
ATOM     60  CB  ILE V   8      10.294  34.362 -15.096  0.00  0.00    +0.029 C 
ATOM     61  CG1 ILE V   8      11.223  35.436 -14.510  0.00  0.00    +0.002 C 
ATOM     62  CG2 ILE V   8      10.561  32.998 -14.404  0.00  0.00    +0.002 C 
ATOM     63  CD1 ILE V   8      10.861  35.812 -13.099  0.00  0.00    +0.000 C 
ATOM     64  N   LYS V   9      10.249  32.085 -17.708  0.00  0.00    -0.196 N 
ATOM     65  CA  LYS V   9       9.550  30.891 -18.216  0.00  0.00    +0.173 C 
ATOM     66  C   LYS V   9       9.288  29.865 -17.105  0.00  0.00    +0.262 C 
ATOM     67  O   LYS V   9      10.118  29.661 -16.215  0.00  0.00    -0.271 OA
ATOM     68  CB  LYS V   9      10.369  30.220 -19.313  0.00  0.00    +0.031 C 
ATOM     69  CG  LYS V   9      10.351  30.962 -20.637  0.00  0.00    +0.004 C 
ATOM     70  CD  LYS V   9      11.302  30.357 -21.636  0.00  0.00    +0.021 C 
ATOM     71  CE  LYS V   9      11.438  31.235 -22.882  0.00  0.00    +0.109 C 
ATOM     72  NZ  LYS V   9      11.755  32.679 -22.596  0.00  0.00    -0.131 N 
ATOM     73  N   TYR V  10       8.147  29.189 -17.189  0.00  0.00    -0.196 N 
ATOM     74  CA  TYR V  10       7.804  28.156 -16.223  0.00  0.00    +0.177 C 
ATOM     75  C   TYR V  10       6.803  27.176 -16.832  0.00  0.00    +0.262 C 
ATOM     76  O   TYR V  10       6.188  27.482 -17.850  0.00  0.00    -0.271 OA
ATOM     77  CB  TYR V  10       7.236  28.771 -14.928  0.00  0.00    +0.057 C 
ATOM     78  CG  TYR V  10       5.940  29.562 -15.055  0.00  0.00    -0.020 A 
ATOM     79  CD2 TYR V  10       4.701  28.943 -14.919  0.00  0.00    -0.001 A 
ATOM     80  CD1 TYR V  10       5.951  30.939 -15.247  0.00  0.00    -0.001 A 
ATOM     81  CE2 TYR V  10       3.508  29.666 -15.011  0.00  0.00    +0.042 A 
ATOM     82  CE1 TYR V  10       4.755  31.672 -15.312  0.00  0.00    +0.042 A 
ATOM     83  CZ  TYR V  10       3.541  31.015 -15.190  0.00  0.00    +0.196 A 
ATOM     84  OH  TYR V  10       2.329  31.700 -15.256  0.00  0.00    -0.287 OA
ATOM     85  N   LYS V  11       6.680  25.998 -16.227  0.00  0.00    -0.196 N 
ATOM     86  CA  LYS V  11       5.715  25.009 -16.703  0.00  0.00    +0.173 C 
ATOM     87  C   LYS V  11       5.022  24.309 -15.539  0.00  0.00    +0.262 C 
ATOM     88  O   LYS V  11       5.611  24.139 -14.478  0.00  0.00    -0.271 OA
ATOM     89  CB  LYS V  11       6.365  24.019 -17.662  0.00  0.00    +0.031 C 
ATOM     90  CG  LYS V  11       7.425  23.168 -17.105  0.00  0.00    +0.004 C 
ATOM     91  CD  LYS V  11       8.029  22.292 -18.234  0.00  0.00    +0.021 C 
ATOM     92  CE  LYS V  11       9.199  21.450 -17.776  0.00  0.00    +0.109 C 
ATOM     93  NZ  LYS V  11       9.707  20.675 -18.941  0.00  0.00    -0.131 N 
ATOM     94  N   PHE V  12       3.780  23.907 -15.755  0.00  0.00    -0.196 N 
ATOM     95  CA  PHE V  12       2.992  23.220 -14.731  0.00  0.00    +0.177 C 
ATOM     96  C   PHE V  12       3.148  21.708 -14.911  0.00  0.00    +0.262 C 
ATOM     97  O   PHE V  12       2.926  21.193 -16.028  0.00  0.00    -0.271 OA
ATOM     98  CB  PHE V  12       1.516  23.585 -14.878  0.00  0.00    +0.057 C 
ATOM     99  CG  PHE V  12       1.200  25.056 -14.707  0.00  0.00    -0.020 A 
ATOM    100  CD2 PHE V  12       1.430  25.695 -13.502  0.00  0.00    -0.004 A 
ATOM    101  CD1 PHE V  12       0.595  25.782 -15.727  0.00  0.00    -0.004 A 
ATOM    102  CE2 PHE V  12       1.108  27.036 -13.321  0.00  0.00    -0.000 A 
ATOM    103  CE1 PHE V  12       0.268  27.123 -15.553  0.00  0.00    -0.000 A 
ATOM    104  CZ  PHE V  12       0.506  27.747 -14.346  0.00  0.00    -0.000 A 
ATOM    105  N   GLU V  13       3.485  21.000 -13.831  0.00  0.00    -0.196 N 
ATOM    106  CA  GLU V  13       3.618  19.541 -13.831  0.00  0.00    +0.173 C 
ATOM    107  C   GLU V  13       2.686  18.941 -12.770  0.00  0.00    +0.262 C 
ATOM    108  O   GLU V  13       2.411  19.587 -11.742  0.00  0.00    -0.271 OA
ATOM    109  CB  GLU V  13       5.063  19.125 -13.529  0.00  0.00    +0.043 C 
ATOM    110  CG  GLU V  13       6.045  19.496 -14.635  0.00  0.00    +0.116 C 
ATOM    111  CD  GLU V  13       7.453  18.989 -14.383  0.00  0.00    +0.365 C 
ATOM    112  OE2 GLU V  13       7.809  18.707 -13.212  0.00  0.00    -0.246 OA
ATOM    113  OE1 GLU V  13       8.214  18.849 -15.379  0.00  0.00    -0.246 OA
ATOM    114  N   VAL V  14       2.207  17.724 -13.017  0.00  0.00    -0.196 N 
ATOM    115  CA  VAL V  14       1.454  16.976 -12.018  0.00  0.00    +0.173 C 
ATOM    116  C   VAL V  14       2.077  15.587 -11.871  0.00  0.00    +0.262 C 
ATOM    117  O   VAL V  14       2.244  14.887 -12.877  0.00  0.00    -0.271 OA
ATOM    118  CB  VAL V  14      -0.048  16.825 -12.401  0.00  0.00    +0.029 C 
ATOM    119  CG2 VAL V  14      -0.801  16.106 -11.274  0.00  0.00    +0.002 C 
ATOM    120  CG1 VAL V  14      -0.663  18.192 -12.690  0.00  0.00    +0.002 C 
ATOM    121  N   TYR V  15       2.442  15.215 -10.638  0.00  0.00    -0.196 N 
ATOM    122  CA  TYR V  15       2.977  13.887 -10.306  0.00  0.00    +0.177 C 
ATOM    123  C   TYR V  15       1.961  13.151  -9.447  0.00  0.00    +0.262 C 
ATOM    124  O   TYR V  15       1.170  13.774  -8.743  0.00  0.00    -0.271 OA
ATOM    125  CB  TYR V  15       4.282  14.008  -9.496  0.00  0.00    +0.057 C 
ATOM    126  CG  TYR V  15       5.446  14.602 -10.240  0.00  0.00    -0.020 A 
ATOM    127  CD2 TYR V  15       5.571  15.973 -10.398  0.00  0.00    -0.001 A 
ATOM    128  CD1 TYR V  15       6.416  13.790 -10.796  0.00  0.00    -0.001 A 
ATOM    129  CE2 TYR V  15       6.643  16.541 -11.072  0.00  0.00    +0.042 A 
ATOM    130  CE1 TYR V  15       7.490  14.337 -11.481  0.00  0.00    +0.042 A 
ATOM    131  CZ  TYR V  15       7.598  15.715 -11.616  0.00  0.00    +0.196 A 
ATOM    132  OH  TYR V  15       8.651  16.242 -12.319  0.00  0.00    -0.287 OA
ATOM    133  N   GLU V  16       1.992  11.826  -9.518  0.00  0.00    -0.196 N 
ATOM    134  CA  GLU V  16       1.045  11.005  -8.771  0.00  0.00    +0.173 C 
ATOM    135  C   GLU V  16       1.708   9.754  -8.218  0.00  0.00    +0.262 C 
ATOM    136  O   GLU V  16       2.499   9.127  -8.909  0.00  0.00    -0.271 OA
ATOM    137  CB  GLU V  16      -0.106  10.625  -9.720  0.00  0.00    +0.043 C 
ATOM    138  CG  GLU V  16      -1.208   9.760  -9.185  0.00  0.00    +0.116 C 
ATOM    139  CD  GLU V  16      -2.462   9.809 -10.104  0.00  0.00    +0.365 C 
ATOM    140  OE1 GLU V  16      -2.379   9.307 -11.229  0.00  0.00    -0.246 OA
ATOM    141  OE2 GLU V  16      -3.515  10.380  -9.721  0.00  0.00    -0.246 OA
ATOM    142  N   LYS V  17       1.337   9.378  -6.994  0.00  0.00    -0.196 N 
ATOM    143  CA  LYS V  17       1.649   8.040  -6.480  0.00  0.00    +0.173 C 
ATOM    144  C   LYS V  17       0.365   7.422  -5.949  0.00  0.00    +0.262 C 
ATOM    145  O   LYS V  17      -0.587   8.132  -5.610  0.00  0.00    -0.271 OA
ATOM    146  CB  LYS V  17       2.713   8.067  -5.395  0.00  0.00    +0.031 C 
ATOM    147  CG  LYS V  17       2.255   8.550  -4.032  0.00  0.00    +0.004 C 
ATOM    148  CD  LYS V  17       3.341   8.289  -2.977  0.00  0.00    +0.021 C 
ATOM    149  CE  LYS V  17       2.843   8.609  -1.587  0.00  0.00    +0.109 C 
ATOM    150  NZ  LYS V  17       1.887   7.558  -1.101  0.00  0.00    -0.131 N 
ATOM    151  N   ASN V  18       0.362   6.099  -5.869  0.00  0.00    -0.196 N 
ATOM    152  CA  ASN V  18      -0.840   5.347  -5.528  0.00  0.00    +0.182 C 
ATOM    153  C   ASN V  18      -0.715   4.441  -4.314  0.00  0.00    +0.262 C 
ATOM    154  O   ASN V  18      -1.710   4.211  -3.627  0.00  0.00    -0.271 OA
ATOM    155  CB  ASN V  18      -1.252   4.517  -6.737  0.00  0.00    +0.120 C 
ATOM    156  CG  ASN V  18      -1.771   5.371  -7.864  0.00  0.00    +0.263 C 
ATOM    157  OD1 ASN V  18      -2.687   6.169  -7.671  0.00  0.00    -0.272 OA
ATOM    158  ND2 ASN V  18      -1.183   5.223  -9.048  0.00  0.00    -0.088 N 
ATOM    159  N   ASP V  19       0.482   3.911  -4.069  0.00  0.00    -0.194 N 
ATOM    160  CA  ASP V  19       0.695   2.840  -3.080  0.00  0.00    +0.209 C 
ATOM    161  C   ASP V  19      -0.200   1.612  -3.326  0.00  0.00    +0.385 C 
ATOM    162  O   ASP V  19      -0.147   0.994  -4.394  0.00  0.00    -0.244 OA
ATOM    163  CB  ASP V  19       0.521   3.377  -1.653  0.00  0.00    +0.147 C 
ATOM    164  CG  ASP V  19       1.645   4.292  -1.234  0.00  0.00    +0.367 C 
ATOM    165  OD1 ASP V  19       2.222   4.982  -2.099  0.00  0.00    -0.246 OA
ATOM    166  OD2 ASP V  19       1.954   4.330  -0.027  0.00  0.00    -0.246 OA
ATOM    167  OXT ASP V  19      -0.999   1.173  -2.491  0.00  0.00    -0.244 OA
ATOM    168  H   ASP V   1       1.220  23.132 -22.762  0.00  0.00    +0.000 HD
ATOM    169  H   ASP V   1       1.096  24.344 -21.626  0.00  0.00    +0.000 HD
ATOM    170  H   ASP V   1       2.122  23.058 -21.364  0.00  0.00    +0.000 HD
ATOM    171  H   VAL V   2       5.196  25.203 -23.000  0.00  0.00    +0.000 HD
ATOM    172  H   GLN V   3       5.319  27.928 -19.381  0.00  0.00    +0.000 HD
ATOM    173  H   GLN V   3       0.544  27.995 -21.043  0.00  0.00    +0.000 HD
ATOM    174  H   GLN V   3       1.880  27.121 -20.445  0.00  0.00    +0.000 HD
ATOM    175  H   GLU V   4       4.167  32.285 -19.970  0.00  0.00    +0.000 HD
ATOM    176  H   GLU V   5       6.721  34.422 -17.397  0.00  0.00    +0.000 HD
ATOM    177  H   LYS V   6       5.821  38.615 -17.433  0.00  0.00    +0.000 HD
ATOM    178  H   LYS V   6       5.439  40.166 -10.855  0.00  0.00    +0.000 HD
ATOM    179  H   LYS V   6       4.870  41.725 -10.714  0.00  0.00    +0.000 HD
ATOM    180  H   LYS V   6       6.508  41.442 -10.811  0.00  0.00    +0.000 HD
ATOM    181  H   GLY V   7       8.294  37.882 -18.802  0.00  0.00    +0.000 HD
ATOM    182  H   ILE V   8       9.286  35.959 -17.044  0.00  0.00    +0.000 HD
ATOM    183  H   LYS V   9      11.231  32.119 -17.773  0.00  0.00    +0.000 HD
ATOM    184  H   LYS V   9      12.660  32.743 -22.129  0.00  0.00    +0.000 HD
ATOM    185  H   LYS V   9      11.033  33.073 -21.993  0.00  0.00    +0.000 HD
ATOM    186  H   LYS V   9      11.787  33.200 -23.472  0.00  0.00    +0.000 HD
ATOM    187  H   TYR V  10       7.520  29.391 -17.921  0.00  0.00    +0.000 HD
ATOM    188  H   TYR V  10       2.322  32.629 -15.379  0.00  0.00    +0.000 HD
ATOM    189  H   LYS V  11       7.246  25.790 -15.449  0.00  0.00    +0.000 HD
ATOM    190  H   LYS V  11      10.000  21.319 -19.676  0.00  0.00    +0.000 HD
ATOM    191  H   LYS V  11       8.967  20.069 -19.295  0.00  0.00    +0.000 HD
ATOM    192  H   LYS V  11      10.502  20.106 -18.650  0.00  0.00    +0.000 HD
ATOM    193  H   PHE V  12       3.372  24.076 -16.635  0.00  0.00    +0.000 HD
ATOM    194  H   GLU V  13       3.653  21.484 -12.990  0.00  0.00    +0.000 HD
ATOM    195  H   VAL V  14       2.366  17.318 -13.899  0.00  0.00    +0.000 HD
ATOM    196  H   TYR V  15       2.346  15.870  -9.910  0.00  0.00    +0.000 HD
ATOM    197  H   TYR V  15       9.299  15.674 -12.688  0.00  0.00    +0.000 HD
ATOM    198  H   GLU V  16       2.667  11.389 -10.086  0.00  0.00    +0.000 HD
ATOM    199  H   LYS V  17       0.844  10.011  -6.424  0.00  0.00    +0.000 HD
ATOM    200  H   LYS V  17       1.081   7.517  -1.724  0.00  0.00    +0.000 HD
ATOM    201  H   LYS V  17       1.576   7.791  -0.158  0.00  0.00    +0.000 HD
ATOM    202  H   LYS V  17       2.355   6.652  -1.091  0.00  0.00    +0.000 HD
ATOM    203  H   ASN V  18       1.197   5.609  -6.045  0.00  0.00    +0.000 HD
ATOM    204  H   ASN V  18      -1.485   5.758  -9.818  0.00  0.00    +0.000 HD
ATOM    205  H   ASN V  18      -0.446   4.579  -9.155  0.00  0.00    +0.000 HD
ATOM    206  H   ASP V  19       1.258   4.250  -4.571  0.00  0.00    +0.000 HD
TER 
