MODEL 1
REMARK VINA RESULT:    -7.965      0.000      0.000
REMARK INTER + INTRA:         -10.809
REMARK INTER:                 -10.293
REMARK INTRA:                  -0.516
REMARK UNBOUND:                -0.516
REMARK  Name = /mnt/c/Personal/tickdock/data/docking/counterdock_calibration/7NAE_lig_raw.pdb
REMARK  8 active torsions:
REMARK  status: ('A' for Active; 'I' for Inactive)
REMARK    1  A    between atoms: C8_8  and  C9_9
REMARK    2  A    between atoms: C9_9  and  C10_10
REMARK    3  A    between atoms: C12_12  and  O13_13
REMARK    4  A    between atoms: O13_13  and  C14_14
REMARK    5  A    between atoms: C15_15  and  O16_16
REMARK    6  A    between atoms: O16_16  and  C17_17
REMARK    7  A    between atoms: C18_18  and  O19_19
REMARK    8  A    between atoms: O19_19  and  C20_20
REMARK                            x       y       z     vdW  Elec       q    Type
REMARK                         _______ _______ _______ _____ _____    ______ ____
ROOT
ATOM      1  C9  TOP A 201       6.813  27.137  -1.195  0.00  0.00    +0.057 C 
ENDROOT
BRANCH   1   9
ATOM      2  C1  TOP A 201       4.469  27.319  -2.237  0.00  0.00    +0.101 A 
ATOM      3  N2  TOP A 201       3.619  27.693  -3.208  0.00  0.00    -0.210 NA
ATOM      4  C3  TOP A 201       4.159  28.296  -4.298  0.00  0.00    +0.258 A 
ATOM      5  N4  TOP A 201       3.360  28.617  -5.322  0.00  0.00    -0.086 N 
ATOM      6  N5  TOP A 201       5.463  28.583  -4.440  0.00  0.00    -0.193 NA
ATOM      7  C6  TOP A 201       6.297  28.202  -3.456  0.00  0.00    +0.170 A 
ATOM      8  N7  TOP A 201       7.589  28.539  -3.602  0.00  0.00    -0.107 N 
ATOM      9  C8  TOP A 201       5.839  27.560  -2.291  0.00  0.00    +0.036 A 
ATOM     10  H   TOP A 201       2.395  28.428  -5.270  0.00  0.00    +0.000 HD
ATOM     11  H   TOP A 201       3.736  29.042  -6.126  0.00  0.00    +0.000 HD
ATOM     12  H   TOP A 201       7.890  28.988  -4.424  0.00  0.00    +0.000 HD
ATOM     13  H   TOP A 201       8.234  28.338  -2.886  0.00  0.00    +0.000 HD
ENDBRANCH   1   9
BRANCH   1  14
ATOM     14  C10 TOP A 201       6.848  28.050   0.015  0.00  0.00    -0.011 A 
ATOM     15  C11 TOP A 201       6.411  29.377  -0.025  0.00  0.00    +0.036 A 
ATOM     16  C12 TOP A 201       6.509  30.191   1.108  0.00  0.00    +0.175 A 
ATOM     17  C15 TOP A 201       7.062  29.687   2.298  0.00  0.00    +0.206 A 
ATOM     18  C18 TOP A 201       7.470  28.354   2.322  0.00  0.00    +0.175 A 
ATOM     19  C21 TOP A 201       7.391  27.559   1.193  0.00  0.00    +0.036 A 
BRANCH  16  20
ATOM     20  O13 TOP A 201       6.096  31.498   1.173  0.00  0.00    -0.468 OA
ATOM     21  C14 TOP A 201       6.811  32.485   0.433  0.00  0.00    +0.253 C 
ENDBRANCH  16  20
BRANCH  17  22
ATOM     22  O16 TOP A 201       7.195  30.438   3.460  0.00  0.00    -0.465 OA
ATOM     23  C17 TOP A 201       8.404  31.186   3.647  0.00  0.00    +0.253 C 
ENDBRANCH  17  22
BRANCH  18  24
ATOM     24  O19 TOP A 201       8.022  27.934   3.490  0.00  0.00    -0.468 OA
ATOM     25  C20 TOP A 201       9.384  27.533   3.413  0.00  0.00    +0.253 C 
ENDBRANCH  18  24
ENDBRANCH   1  14
TORSDOF 5
ENDMDL
MODEL 2
REMARK VINA RESULT:    -7.859      0.176      2.653
REMARK INTER + INTRA:         -10.672
REMARK INTER:                 -10.297
REMARK INTRA:                  -0.374
REMARK UNBOUND:                -0.516
REMARK  Name = /mnt/c/Personal/tickdock/data/docking/counterdock_calibration/7NAE_lig_raw.pdb
REMARK  8 active torsions:
REMARK  status: ('A' for Active; 'I' for Inactive)
REMARK    1  A    between atoms: C8_8  and  C9_9
REMARK    2  A    between atoms: C9_9  and  C10_10
REMARK    3  A    between atoms: C12_12  and  O13_13
REMARK    4  A    between atoms: O13_13  and  C14_14
REMARK    5  A    between atoms: C15_15  and  O16_16
REMARK    6  A    between atoms: O16_16  and  C17_17
REMARK    7  A    between atoms: C18_18  and  O19_19
REMARK    8  A    between atoms: O19_19  and  C20_20
REMARK                            x       y       z     vdW  Elec       q    Type
REMARK                         _______ _______ _______ _____ _____    ______ ____
ROOT
ATOM      1  C9  TOP A 201       6.812  27.095  -1.199  0.00  0.00    +0.057 C 
ENDROOT
BRANCH   1   9
ATOM      2  C1  TOP A 201       4.443  27.501  -2.115  0.00  0.00    +0.101 A 
ATOM      3  N2  TOP A 201       3.582  27.960  -3.039  0.00  0.00    -0.210 NA
ATOM      4  C3  TOP A 201       4.118  28.521  -4.153  0.00  0.00    +0.258 A 
ATOM      5  N4  TOP A 201       3.299  28.924  -5.132  0.00  0.00    -0.086 N 
ATOM      6  N5  TOP A 201       5.433  28.688  -4.362  0.00  0.00    -0.193 NA
ATOM      7  C6  TOP A 201       6.279  28.222  -3.425  0.00  0.00    +0.170 A 
ATOM      8  N7  TOP A 201       7.587  28.440  -3.638  0.00  0.00    -0.107 N 
ATOM      9  C8  TOP A 201       5.824  27.615  -2.240  0.00  0.00    +0.036 A 
ATOM     10  H   TOP A 201       2.325  28.824  -5.030  0.00  0.00    +0.000 HD
ATOM     11  H   TOP A 201       3.671  29.319  -5.953  0.00  0.00    +0.000 HD
ATOM     12  H   TOP A 201       7.885  28.867  -4.473  0.00  0.00    +0.000 HD
ATOM     13  H   TOP A 201       8.247  28.174  -2.959  0.00  0.00    +0.000 HD
ENDBRANCH   1   9
BRANCH   1  14
ATOM     14  C10 TOP A 201       6.951  27.961   0.037  0.00  0.00    -0.011 A 
ATOM     15  C11 TOP A 201       7.467  27.480   1.244  0.00  0.00    +0.036 A 
ATOM     16  C12 TOP A 201       7.530  28.309   2.369  0.00  0.00    +0.175 A 
ATOM     17  C15 TOP A 201       7.061  29.632   2.302  0.00  0.00    +0.206 A 
ATOM     18  C18 TOP A 201       6.573  30.097   1.082  0.00  0.00    +0.175 A 
ATOM     19  C21 TOP A 201       6.492  29.268  -0.022  0.00  0.00    +0.036 A 
BRANCH  16  20
ATOM     20  O13 TOP A 201       8.031  27.936   3.590  0.00  0.00    -0.468 OA
ATOM     21  C14 TOP A 201       9.362  27.427   3.665  0.00  0.00    +0.253 C 
ENDBRANCH  16  20
BRANCH  17  22
ATOM     22  O16 TOP A 201       7.089  30.510   3.379  0.00  0.00    -0.465 OA
ATOM     23  C17 TOP A 201       8.335  31.140   3.707  0.00  0.00    +0.253 C 
ENDBRANCH  17  22
BRANCH  18  24
ATOM     24  O19 TOP A 201       6.109  31.374   1.089  0.00  0.00    -0.468 OA
ATOM     25  C20 TOP A 201       6.911  32.319   0.390  0.00  0.00    +0.253 C 
ENDBRANCH  18  24
ENDBRANCH   1  14
TORSDOF 5
ENDMDL
MODEL 3
REMARK VINA RESULT:    -7.850      0.840      1.619
REMARK INTER + INTRA:         -10.660
REMARK INTER:                 -10.236
REMARK INTRA:                  -0.424
REMARK UNBOUND:                -0.516
REMARK  Name = /mnt/c/Personal/tickdock/data/docking/counterdock_calibration/7NAE_lig_raw.pdb
REMARK  8 active torsions:
REMARK  status: ('A' for Active; 'I' for Inactive)
REMARK    1  A    between atoms: C8_8  and  C9_9
REMARK    2  A    between atoms: C9_9  and  C10_10
REMARK    3  A    between atoms: C12_12  and  O13_13
REMARK    4  A    between atoms: O13_13  and  C14_14
REMARK    5  A    between atoms: C15_15  and  O16_16
REMARK    6  A    between atoms: O16_16  and  C17_17
REMARK    7  A    between atoms: C18_18  and  O19_19
REMARK    8  A    between atoms: O19_19  and  C20_20
REMARK                            x       y       z     vdW  Elec       q    Type
REMARK                         _______ _______ _______ _____ _____    ______ ____
ROOT
ATOM      1  C9  TOP A 201       6.112  27.075  -1.493  0.00  0.00    +0.057 C 
ENDROOT
BRANCH   1   9
ATOM      2  C1  TOP A 201       5.905  28.445  -3.659  0.00  0.00    +0.101 A 
ATOM      3  N2  TOP A 201       5.207  28.959  -4.686  0.00  0.00    -0.210 NA
ATOM      4  C3  TOP A 201       3.871  28.715  -4.703  0.00  0.00    +0.258 A 
ATOM      5  N4  TOP A 201       3.126  29.270  -5.666  0.00  0.00    -0.086 N 
ATOM      6  N5  TOP A 201       3.225  27.962  -3.799  0.00  0.00    -0.193 NA
ATOM      7  C6  TOP A 201       3.942  27.457  -2.780  0.00  0.00    +0.170 A 
ATOM      8  N7  TOP A 201       3.280  26.672  -1.914  0.00  0.00    -0.107 N 
ATOM      9  C8  TOP A 201       5.329  27.661  -2.665  0.00  0.00    +0.036 A 
ATOM     10  H   TOP A 201       3.550  29.832  -6.354  0.00  0.00    +0.000 HD
ATOM     11  H   TOP A 201       2.153  29.116  -5.685  0.00  0.00    +0.000 HD
ATOM     12  H   TOP A 201       2.310  26.541  -2.011  0.00  0.00    +0.000 HD
ATOM     13  H   TOP A 201       3.766  26.227  -1.182  0.00  0.00    +0.000 HD
ENDBRANCH   1   9
BRANCH   1  14
ATOM     14  C10 TOP A 201       6.259  27.997  -0.299  0.00  0.00    -0.011 A 
ATOM     15  C11 TOP A 201       5.796  29.316  -0.299  0.00  0.00    +0.036 A 
ATOM     16  C12 TOP A 201       5.999  30.140   0.813  0.00  0.00    +0.175 A 
ATOM     17  C15 TOP A 201       6.686  29.654   1.939  0.00  0.00    +0.206 A 
ATOM     18  C18 TOP A 201       7.119  28.329   1.926  0.00  0.00    +0.175 A 
ATOM     19  C21 TOP A 201       6.934  27.524   0.817  0.00  0.00    +0.036 A 
BRANCH  16  20
ATOM     20  O13 TOP A 201       5.571  31.439   0.914  0.00  0.00    -0.468 OA
ATOM     21  C14 TOP A 201       6.271  32.454   0.197  0.00  0.00    +0.253 C 
ENDBRANCH  16  20
BRANCH  17  22
ATOM     22  O16 TOP A 201       6.928  30.416   3.076  0.00  0.00    -0.465 OA
ATOM     23  C17 TOP A 201       8.161  31.146   3.151  0.00  0.00    +0.253 C 
ENDBRANCH  17  22
BRANCH  18  24
ATOM     24  O19 TOP A 201       7.800  27.928   3.031  0.00  0.00    -0.468 OA
ATOM     25  C20 TOP A 201       9.121  27.456   2.797  0.00  0.00    +0.253 C 
ENDBRANCH  18  24
ENDBRANCH   1  14
TORSDOF 5
ENDMDL
MODEL 4
REMARK VINA RESULT:    -7.786      5.092      6.633
REMARK INTER + INTRA:         -10.578
REMARK INTER:                 -10.035
REMARK INTRA:                  -0.542
REMARK UNBOUND:                -0.516
REMARK  Name = /mnt/c/Personal/tickdock/data/docking/counterdock_calibration/7NAE_lig_raw.pdb
REMARK  8 active torsions:
REMARK  status: ('A' for Active; 'I' for Inactive)
REMARK    1  A    between atoms: C8_8  and  C9_9
REMARK    2  A    between atoms: C9_9  and  C10_10
REMARK    3  A    between atoms: C12_12  and  O13_13
REMARK    4  A    between atoms: O13_13  and  C14_14
REMARK    5  A    between atoms: C15_15  and  O16_16
REMARK    6  A    between atoms: O16_16  and  C17_17
REMARK    7  A    between atoms: C18_18  and  O19_19
REMARK    8  A    between atoms: O19_19  and  C20_20
REMARK                            x       y       z     vdW  Elec       q    Type
REMARK                         _______ _______ _______ _____ _____    ______ ____
ROOT
ATOM      1  C9  TOP A 201       1.912  30.359  -4.219  0.00  0.00    +0.057 C 
ENDROOT
BRANCH   1   9
ATOM      2  C1  TOP A 201       3.412  28.784  -2.847  0.00  0.00    +0.101 A 
ATOM      3  N2  TOP A 201       4.569  28.144  -2.608  0.00  0.00    -0.210 NA
ATOM      4  C3  TOP A 201       5.592  28.381  -3.469  0.00  0.00    +0.258 A 
ATOM      5  N4  TOP A 201       6.783  27.823  -3.227  0.00  0.00    -0.086 N 
ATOM      6  N5  TOP A 201       5.503  29.164  -4.556  0.00  0.00    -0.193 NA
ATOM      7  C6  TOP A 201       4.337  29.795  -4.778  0.00  0.00    +0.170 A 
ATOM      8  N7  TOP A 201       4.261  30.537  -5.895  0.00  0.00    -0.107 N 
ATOM      9  C8  TOP A 201       3.220  29.625  -3.939  0.00  0.00    +0.036 A 
ATOM     10  H   TOP A 201       6.903  27.240  -2.442  0.00  0.00    +0.000 HD
ATOM     11  H   TOP A 201       7.540  27.996  -3.832  0.00  0.00    +0.000 HD
ATOM     12  H   TOP A 201       5.053  30.644  -6.469  0.00  0.00    +0.000 HD
ATOM     13  H   TOP A 201       3.413  30.974  -6.139  0.00  0.00    +0.000 HD
ENDBRANCH   1   9
BRANCH   1  14
ATOM     14  C10 TOP A 201       1.621  31.522  -3.291  0.00  0.00    -0.011 A 
ATOM     15  C11 TOP A 201       2.230  32.772  -3.431  0.00  0.00    +0.036 A 
ATOM     16  C12 TOP A 201       1.962  33.798  -2.518  0.00  0.00    +0.175 A 
ATOM     17  C15 TOP A 201       1.088  33.578  -1.440  0.00  0.00    +0.206 A 
ATOM     18  C18 TOP A 201       0.475  32.331  -1.333  0.00  0.00    +0.175 A 
ATOM     19  C21 TOP A 201       0.758  31.313  -2.225  0.00  0.00    +0.036 A 
BRANCH  16  20
ATOM     20  O13 TOP A 201       2.497  35.060  -2.578  0.00  0.00    -0.468 OA
ATOM     21  C14 TOP A 201       3.854  35.254  -2.184  0.00  0.00    +0.253 C 
ENDBRANCH  16  20
BRANCH  17  22
ATOM     22  O16 TOP A 201       0.779  34.548  -0.493  0.00  0.00    -0.465 OA
ATOM     23  C17 TOP A 201      -0.318  35.431  -0.763  0.00  0.00    +0.253 C 
ENDBRANCH  17  22
BRANCH  18  24
ATOM     24  O19 TOP A 201      -0.337  32.170  -0.256  0.00  0.00    -0.468 OA
ATOM     25  C20 TOP A 201      -0.118  30.988   0.504  0.00  0.00    +0.253 C 
ENDBRANCH  18  24
ENDBRANCH   1  14
TORSDOF 5
ENDMDL
MODEL 5
REMARK VINA RESULT:    -7.703      1.508      3.229
REMARK INTER + INTRA:         -10.471
REMARK INTER:                 -10.036
REMARK INTRA:                  -0.435
REMARK UNBOUND:                -0.516
REMARK  Name = /mnt/c/Personal/tickdock/data/docking/counterdock_calibration/7NAE_lig_raw.pdb
REMARK  8 active torsions:
REMARK  status: ('A' for Active; 'I' for Inactive)
REMARK    1  A    between atoms: C8_8  and  C9_9
REMARK    2  A    between atoms: C9_9  and  C10_10
REMARK    3  A    between atoms: C12_12  and  O13_13
REMARK    4  A    between atoms: O13_13  and  C14_14
REMARK    5  A    between atoms: C15_15  and  O16_16
REMARK    6  A    between atoms: O16_16  and  C17_17
REMARK    7  A    between atoms: C18_18  and  O19_19
REMARK    8  A    between atoms: O19_19  and  C20_20
REMARK                            x       y       z     vdW  Elec       q    Type
REMARK                         _______ _______ _______ _____ _____    ______ ____
ROOT
ATOM      1  C9  TOP A 201       5.746  27.129  -1.872  0.00  0.00    +0.057 C 
ENDROOT
BRANCH   1   9
ATOM      2  C1  TOP A 201       5.339  28.624  -3.925  0.00  0.00    +0.101 A 
ATOM      3  N2  TOP A 201       4.554  29.168  -4.870  0.00  0.00    -0.210 NA
ATOM      4  C3  TOP A 201       3.232  28.861  -4.822  0.00  0.00    +0.258 A 
ATOM      5  N4  TOP A 201       2.402  29.439  -5.697  0.00  0.00    -0.086 N 
ATOM      6  N5  TOP A 201       2.679  28.021  -3.932  0.00  0.00    -0.193 NA
ATOM      7  C6  TOP A 201       3.483  27.487  -2.995  0.00  0.00    +0.170 A 
ATOM      8  N7  TOP A 201       2.913  26.616  -2.145  0.00  0.00    -0.107 N 
ATOM      9  C8  TOP A 201       4.864  27.750  -2.952  0.00  0.00    +0.036 A 
ATOM     10  H   TOP A 201       2.755  30.064  -6.371  0.00  0.00    +0.000 HD
ATOM     11  H   TOP A 201       1.438  29.240  -5.667  0.00  0.00    +0.000 HD
ATOM     12  H   TOP A 201       1.945  26.445  -2.191  0.00  0.00    +0.000 HD
ATOM     13  H   TOP A 201       3.464  26.150  -1.476  0.00  0.00    +0.000 HD
ENDBRANCH   1   9
BRANCH   1  14
ATOM     14  C10 TOP A 201       6.208  28.090  -0.795  0.00  0.00    -0.011 A 
ATOM     15  C11 TOP A 201       7.476  28.019  -0.212  0.00  0.00    +0.036 A 
ATOM     16  C12 TOP A 201       7.837  28.901   0.812  0.00  0.00    +0.175 A 
ATOM     17  C15 TOP A 201       6.920  29.860   1.277  0.00  0.00    +0.206 A 
ATOM     18  C18 TOP A 201       5.669  29.927   0.666  0.00  0.00    +0.175 A 
ATOM     19  C21 TOP A 201       5.310  29.040  -0.332  0.00  0.00    +0.036 A 
BRANCH  16  20
ATOM     20  O13 TOP A 201       9.058  28.921   1.437  0.00  0.00    -0.468 OA
ATOM     21  C14 TOP A 201       9.350  27.925   2.415  0.00  0.00    +0.253 C 
ENDBRANCH  16  20
BRANCH  17  22
ATOM     22  O16 TOP A 201       7.207  30.765   2.293  0.00  0.00    -0.465 OA
ATOM     23  C17 TOP A 201       7.970  31.933   1.963  0.00  0.00    +0.253 C 
ENDBRANCH  17  22
BRANCH  18  24
ATOM     24  O19 TOP A 201       4.819  30.855   1.177  0.00  0.00    -0.468 OA
ATOM     25  C20 TOP A 201       3.890  31.408   0.253  0.00  0.00    +0.253 C 
ENDBRANCH  18  24
ENDBRANCH   1  14
TORSDOF 5
ENDMDL
MODEL 6
REMARK VINA RESULT:    -7.673      5.133      7.134
REMARK INTER + INTRA:         -10.432
REMARK INTER:                 -10.084
REMARK INTRA:                  -0.347
REMARK UNBOUND:                -0.516
REMARK  Name = /mnt/c/Personal/tickdock/data/docking/counterdock_calibration/7NAE_lig_raw.pdb
REMARK  8 active torsions:
REMARK  status: ('A' for Active; 'I' for Inactive)
REMARK    1  A    between atoms: C8_8  and  C9_9
REMARK    2  A    between atoms: C9_9  and  C10_10
REMARK    3  A    between atoms: C12_12  and  O13_13
REMARK    4  A    between atoms: O13_13  and  C14_14
REMARK    5  A    between atoms: C15_15  and  O16_16
REMARK    6  A    between atoms: O16_16  and  C17_17
REMARK    7  A    between atoms: C18_18  and  O19_19
REMARK    8  A    between atoms: O19_19  and  C20_20
REMARK                            x       y       z     vdW  Elec       q    Type
REMARK                         _______ _______ _______ _____ _____    ______ ____
ROOT
ATOM      1  C9  TOP A 201       2.364  31.214  -4.299  0.00  0.00    +0.057 C 
ENDROOT
BRANCH   1   9
ATOM      2  C1  TOP A 201       3.791  29.969  -2.559  0.00  0.00    +0.101 A 
ATOM      3  N2  TOP A 201       4.524  28.922  -2.143  0.00  0.00    -0.210 NA
ATOM      4  C3  TOP A 201       4.707  27.910  -3.030  0.00  0.00    +0.258 A 
ATOM      5  N4  TOP A 201       5.492  26.883  -2.685  0.00  0.00    -0.086 N 
ATOM      6  N5  TOP A 201       4.168  27.870  -4.258  0.00  0.00    -0.193 NA
ATOM      7  C6  TOP A 201       3.436  28.926  -4.654  0.00  0.00    +0.170 A 
ATOM      8  N7  TOP A 201       2.872  28.841  -5.870  0.00  0.00    -0.107 N 
ATOM      9  C8  TOP A 201       3.196  30.030  -3.816  0.00  0.00    +0.036 A 
ATOM     10  H   TOP A 201       5.914  26.864  -1.795  0.00  0.00    +0.000 HD
ATOM     11  H   TOP A 201       5.649  26.148  -3.320  0.00  0.00    +0.000 HD
ATOM     12  H   TOP A 201       3.052  28.061  -6.442  0.00  0.00    +0.000 HD
ATOM     13  H   TOP A 201       2.278  29.559  -6.189  0.00  0.00    +0.000 HD
ENDBRANCH   1   9
BRANCH   1  14
ATOM     14  C10 TOP A 201       1.790  32.083  -3.197  0.00  0.00    -0.011 A 
ATOM     15  C11 TOP A 201       0.793  31.638  -2.325  0.00  0.00    +0.036 A 
ATOM     16  C12 TOP A 201       0.264  32.496  -1.355  0.00  0.00    +0.175 A 
ATOM     17  C15 TOP A 201       0.720  33.822  -1.256  0.00  0.00    +0.206 A 
ATOM     18  C18 TOP A 201       1.732  34.237  -2.121  0.00  0.00    +0.175 A 
ATOM     19  C21 TOP A 201       2.237  33.392  -3.092  0.00  0.00    +0.036 A 
BRANCH  16  20
ATOM     20  O13 TOP A 201      -0.704  32.151  -0.446  0.00  0.00    -0.468 OA
ATOM     21  C14 TOP A 201      -0.417  31.139   0.517  0.00  0.00    +0.253 C 
ENDBRANCH  16  20
BRANCH  17  22
ATOM     22  O16 TOP A 201       0.238  34.731  -0.321  0.00  0.00    -0.465 OA
ATOM     23  C17 TOP A 201      -0.952  35.465  -0.643  0.00  0.00    +0.253 C 
ENDBRANCH  17  22
BRANCH  18  24
ATOM     24  O19 TOP A 201       2.110  35.535  -1.995  0.00  0.00    -0.468 OA
ATOM     25  C20 TOP A 201       3.461  35.743  -1.601  0.00  0.00    +0.253 C 
ENDBRANCH  18  24
ENDBRANCH   1  14
TORSDOF 5
ENDMDL
MODEL 7
REMARK VINA RESULT:    -7.550      2.283      2.991
REMARK INTER + INTRA:         -10.273
REMARK INTER:                  -9.782
REMARK INTRA:                  -0.491
REMARK UNBOUND:                -0.516
REMARK  Name = /mnt/c/Personal/tickdock/data/docking/counterdock_calibration/7NAE_lig_raw.pdb
REMARK  8 active torsions:
REMARK  status: ('A' for Active; 'I' for Inactive)
REMARK    1  A    between atoms: C8_8  and  C9_9
REMARK    2  A    between atoms: C9_9  and  C10_10
REMARK    3  A    between atoms: C12_12  and  O13_13
REMARK    4  A    between atoms: O13_13  and  C14_14
REMARK    5  A    between atoms: C15_15  and  O16_16
REMARK    6  A    between atoms: O16_16  and  C17_17
REMARK    7  A    between atoms: C18_18  and  O19_19
REMARK    8  A    between atoms: O19_19  and  C20_20
REMARK                            x       y       z     vdW  Elec       q    Type
REMARK                         _______ _______ _______ _____ _____    ______ ____
ROOT
ATOM      1  C9  TOP A 201       2.675  29.188  -1.194  0.00  0.00    +0.057 C 
ENDROOT
BRANCH   1   9
ATOM      2  C1  TOP A 201       2.715  29.775  -3.697  0.00  0.00    +0.101 A 
ATOM      3  N2  TOP A 201       2.746  29.449  -5.001  0.00  0.00    -0.210 NA
ATOM      4  C3  TOP A 201       2.733  28.126  -5.303  0.00  0.00    +0.258 A 
ATOM      5  N4  TOP A 201       2.687  27.757  -6.588  0.00  0.00    -0.086 N 
ATOM      6  N5  TOP A 201       2.743  27.139  -4.394  0.00  0.00    -0.193 NA
ATOM      7  C6  TOP A 201       2.713  27.486  -3.095  0.00  0.00    +0.170 A 
ATOM      8  N7  TOP A 201       2.767  26.481  -2.205  0.00  0.00    -0.107 N 
ATOM      9  C8  TOP A 201       2.713  28.829  -2.677  0.00  0.00    +0.036 A 
ATOM     10  H   TOP A 201       2.678  28.441  -7.296  0.00  0.00    +0.000 HD
ATOM     11  H   TOP A 201       2.662  26.802  -6.826  0.00  0.00    +0.000 HD
ATOM     12  H   TOP A 201       2.766  25.547  -2.517  0.00  0.00    +0.000 HD
ATOM     13  H   TOP A 201       2.807  26.677  -1.242  0.00  0.00    +0.000 HD
ENDBRANCH   1   9
BRANCH   1  14
ATOM     14  C10 TOP A 201       4.013  29.579  -0.598  0.00  0.00    -0.011 A 
ATOM     15  C11 TOP A 201       4.289  30.870  -0.139  0.00  0.00    +0.036 A 
ATOM     16  C12 TOP A 201       5.555  31.192   0.359  0.00  0.00    +0.175 A 
ATOM     17  C15 TOP A 201       6.572  30.221   0.390  0.00  0.00    +0.206 A 
ATOM     18  C18 TOP A 201       6.268  28.934  -0.051  0.00  0.00    +0.175 A 
ATOM     19  C21 TOP A 201       5.020  28.626  -0.562  0.00  0.00    +0.036 A 
BRANCH  16  20
ATOM     20  O13 TOP A 201       5.919  32.422   0.844  0.00  0.00    -0.468 OA
ATOM     21  C14 TOP A 201       5.962  33.532  -0.052  0.00  0.00    +0.253 C 
ENDBRANCH  16  20
BRANCH  17  22
ATOM     22  O16 TOP A 201       7.854  30.470   0.866  0.00  0.00    -0.465 OA
ATOM     23  C17 TOP A 201       8.070  30.421   2.284  0.00  0.00    +0.253 C 
ENDBRANCH  17  22
BRANCH  18  24
ATOM     24  O19 TOP A 201       7.298  28.049  -0.022  0.00  0.00    -0.468 OA
ATOM     25  C20 TOP A 201       7.170  26.991   0.920  0.00  0.00    +0.253 C 
ENDBRANCH  18  24
ENDBRANCH   1  14
TORSDOF 5
ENDMDL
MODEL 8
REMARK VINA RESULT:    -7.505      2.277      3.917
REMARK INTER + INTRA:         -10.215
REMARK INTER:                  -9.788
REMARK INTRA:                  -0.427
REMARK UNBOUND:                -0.516
REMARK  Name = /mnt/c/Personal/tickdock/data/docking/counterdock_calibration/7NAE_lig_raw.pdb
REMARK  8 active torsions:
REMARK  status: ('A' for Active; 'I' for Inactive)
REMARK    1  A    between atoms: C8_8  and  C9_9
REMARK    2  A    between atoms: C9_9  and  C10_10
REMARK    3  A    between atoms: C12_12  and  O13_13
REMARK    4  A    between atoms: O13_13  and  C14_14
REMARK    5  A    between atoms: C15_15  and  O16_16
REMARK    6  A    between atoms: O16_16  and  C17_17
REMARK    7  A    between atoms: C18_18  and  O19_19
REMARK    8  A    between atoms: O19_19  and  C20_20
REMARK                            x       y       z     vdW  Elec       q    Type
REMARK                         _______ _______ _______ _____ _____    ______ ____
ROOT
ATOM      1  C9  TOP A 201       2.592  29.346  -1.364  0.00  0.00    +0.057 C 
ENDROOT
BRANCH   1   9
ATOM      2  C1  TOP A 201       2.652  29.800  -3.895  0.00  0.00    +0.101 A 
ATOM      3  N2  TOP A 201       2.690  29.406  -5.179  0.00  0.00    -0.210 NA
ATOM      4  C3  TOP A 201       2.672  28.068  -5.411  0.00  0.00    +0.258 A 
ATOM      5  N4  TOP A 201       2.633  27.632  -6.675  0.00  0.00    -0.086 N 
ATOM      6  N5  TOP A 201       2.670  27.130  -4.451  0.00  0.00    -0.193 NA
ATOM      7  C6  TOP A 201       2.633  27.546  -3.172  0.00  0.00    +0.170 A 
ATOM      8  N7  TOP A 201       2.676  26.589  -2.231  0.00  0.00    -0.107 N 
ATOM      9  C8  TOP A 201       2.638  28.909  -2.826  0.00  0.00    +0.036 A 
ATOM     10  H   TOP A 201       2.632  28.278  -7.419  0.00  0.00    +0.000 HD
ATOM     11  H   TOP A 201       2.605  26.666  -6.863  0.00  0.00    +0.000 HD
ATOM     12  H   TOP A 201       2.673  25.640  -2.493  0.00  0.00    +0.000 HD
ATOM     13  H   TOP A 201       2.711  26.836  -1.278  0.00  0.00    +0.000 HD
ENDBRANCH   1   9
BRANCH   1  14
ATOM     14  C10 TOP A 201       3.945  29.612  -0.735  0.00  0.00    -0.011 A 
ATOM     15  C11 TOP A 201       4.906  28.613  -0.557  0.00  0.00    +0.036 A 
ATOM     16  C12 TOP A 201       6.122  28.901   0.073  0.00  0.00    +0.175 A 
ATOM     17  C15 TOP A 201       6.384  30.198   0.547  0.00  0.00    +0.206 A 
ATOM     18  C18 TOP A 201       5.421  31.184   0.338  0.00  0.00    +0.175 A 
ATOM     19  C21 TOP A 201       4.212  30.889  -0.266  0.00  0.00    +0.036 A 
BRANCH  16  20
ATOM     20  O13 TOP A 201       7.131  27.996   0.282  0.00  0.00    -0.468 OA
ATOM     21  C14 TOP A 201       6.817  26.735   0.869  0.00  0.00    +0.253 C 
ENDBRANCH  16  20
BRANCH  17  22
ATOM     22  O16 TOP A 201       7.566  30.556   1.186  0.00  0.00    -0.465 OA
ATOM     23  C17 TOP A 201       7.649  30.377   2.606  0.00  0.00    +0.253 C 
ENDBRANCH  17  22
BRANCH  18  24
ATOM     24  O19 TOP A 201       5.721  32.408   0.843  0.00  0.00    -0.468 OA
ATOM     25  C20 TOP A 201       5.988  33.419  -0.122  0.00  0.00    +0.253 C 
ENDBRANCH  18  24
ENDBRANCH   1  14
TORSDOF 5
ENDMDL
MODEL 9
REMARK VINA RESULT:    -7.488      5.009      7.355
REMARK INTER + INTRA:         -10.192
REMARK INTER:                  -9.653
REMARK INTRA:                  -0.539
REMARK UNBOUND:                -0.516
REMARK  Name = /mnt/c/Personal/tickdock/data/docking/counterdock_calibration/7NAE_lig_raw.pdb
REMARK  8 active torsions:
REMARK  status: ('A' for Active; 'I' for Inactive)
REMARK    1  A    between atoms: C8_8  and  C9_9
REMARK    2  A    between atoms: C9_9  and  C10_10
REMARK    3  A    between atoms: C12_12  and  O13_13
REMARK    4  A    between atoms: O13_13  and  C14_14
REMARK    5  A    between atoms: C15_15  and  O16_16
REMARK    6  A    between atoms: O16_16  and  C17_17
REMARK    7  A    between atoms: C18_18  and  O19_19
REMARK    8  A    between atoms: O19_19  and  C20_20
REMARK                            x       y       z     vdW  Elec       q    Type
REMARK                         _______ _______ _______ _____ _____    ______ ____
ROOT
ATOM      1  C9  TOP A 201       0.981  31.360  -2.936  0.00  0.00    +0.057 C 
ENDROOT
BRANCH   1   9
ATOM      2  C1  TOP A 201       2.556  33.392  -2.913  0.00  0.00    +0.101 A 
ATOM      3  N2  TOP A 201       2.991  34.561  -2.412  0.00  0.00    -0.210 NA
ATOM      4  C3  TOP A 201       2.355  35.031  -1.308  0.00  0.00    +0.258 A 
ATOM      5  N4  TOP A 201       2.803  36.153  -0.733  0.00  0.00    -0.086 N 
ATOM      6  N5  TOP A 201       1.303  34.434  -0.726  0.00  0.00    -0.193 NA
ATOM      7  C6  TOP A 201       0.882  33.266  -1.243  0.00  0.00    +0.170 A 
ATOM      8  N7  TOP A 201      -0.198  32.712  -0.669  0.00  0.00    -0.107 N 
ATOM      9  C8  TOP A 201       1.481  32.689  -2.378  0.00  0.00    +0.036 A 
ATOM     10  H   TOP A 201       3.572  36.630  -1.119  0.00  0.00    +0.000 HD
ATOM     11  H   TOP A 201       2.363  36.500   0.077  0.00  0.00    +0.000 HD
ATOM     12  H   TOP A 201      -0.603  33.131   0.125  0.00  0.00    +0.000 HD
ATOM     13  H   TOP A 201      -0.586  31.887  -1.042  0.00  0.00    +0.000 HD
ENDBRANCH   1   9
BRANCH   1  14
ATOM     14  C10 TOP A 201       1.963  30.210  -2.825  0.00  0.00    -0.011 A 
ATOM     15  C11 TOP A 201       2.576  29.853  -1.621  0.00  0.00    +0.036 A 
ATOM     16  C12 TOP A 201       3.512  28.814  -1.582  0.00  0.00    +0.175 A 
ATOM     17  C15 TOP A 201       3.857  28.126  -2.759  0.00  0.00    +0.206 A 
ATOM     18  C18 TOP A 201       3.216  28.484  -3.944  0.00  0.00    +0.175 A 
ATOM     19  C21 TOP A 201       2.307  29.526  -3.981  0.00  0.00    +0.036 A 
BRANCH  16  20
ATOM     20  O13 TOP A 201       4.156  28.380  -0.451  0.00  0.00    -0.468 OA
ATOM     21  C14 TOP A 201       4.929  29.312   0.303  0.00  0.00    +0.253 C 
ENDBRANCH  16  20
BRANCH  17  22
ATOM     22  O16 TOP A 201       4.780  27.088  -2.797  0.00  0.00    -0.465 OA
ATOM     23  C17 TOP A 201       6.175  27.423  -2.804  0.00  0.00    +0.253 C 
ENDBRANCH  17  22
BRANCH  18  24
ATOM     24  O19 TOP A 201       3.612  27.803  -5.050  0.00  0.00    -0.468 OA
ATOM     25  C20 TOP A 201       2.641  27.701  -6.085  0.00  0.00    +0.253 C 
ENDBRANCH  18  24
ENDBRANCH   1  14
TORSDOF 5
ENDMDL
