REMARK  Name = /mnt/c/Personal/tickdock/data/docking/counterdock_calibration/2W9H_protein.pdb
REMARK                            x       y       z     vdW  Elec       q    Type
REMARK                         _______ _______ _______ _____ _____    ______ ____
ATOM      1  N   THR A   1      14.064   4.225  -1.888  0.00  0.00    -0.120 N 
ATOM      2  CA  THR A   1      13.074   4.836  -0.963  0.00  0.00    +0.199 C 
ATOM      3  C   THR A   1      13.456   4.456   0.462  0.00  0.00    +0.262 C 
ATOM      4  O   THR A   1      13.825   3.316   0.722  0.00  0.00    -0.272 OA
ATOM      5  CB  THR A   1      11.643   4.347  -1.274  0.00  0.00    +0.178 C 
ATOM      6  OG1 THR A   1      11.282   4.752  -2.601  0.00  0.00    -0.221 OA
ATOM      7  CG2 THR A   1      10.642   4.922  -0.280  0.00  0.00    +0.038 C 
ATOM      8  N   LEU A   2      13.386   5.428   1.368  0.00  0.00    -0.196 N 
ATOM      9  CA  LEU A   2      13.692   5.197   2.771  0.00  0.00    +0.173 C 
ATOM     10  C   LEU A   2      12.433   5.430   3.593  0.00  0.00    +0.262 C 
ATOM     11  O   LEU A   2      11.849   6.515   3.556  0.00  0.00    -0.271 OA
ATOM     12  CB  LEU A   2      14.792   6.155   3.232  0.00  0.00    +0.031 C 
ATOM     13  CG  LEU A   2      15.379   5.960   4.624  0.00  0.00    +0.002 C 
ATOM     14  CD1 LEU A   2      16.055   4.602   4.751  0.00  0.00    +0.000 C 
ATOM     15  CD2 LEU A   2      16.374   7.084   4.905  0.00  0.00    +0.000 C 
ATOM     16  N   UNK A   3      12.014   4.405   4.330  0.00  0.00    -0.194 N 
ATOM     17  C   UNK A   3      10.744   4.448   5.052  0.00  0.00    +0.205 C 
ATOM     18  C   UNK A   3      10.968   4.078   6.508  0.00  0.00    +0.264 C 
ATOM     19  O   UNK A   3      11.798   3.225   6.795  0.00  0.00    -0.271 OA
ATOM     20  C   UNK A   3       9.770   3.421   4.463  0.00  0.00    +0.213 C 
ATOM     21  O   UNK A   3       9.581   3.611   3.076  0.00  0.00    -0.218 OA
ATOM     22  N   UNK A   3      10.213   4.690   7.415  0.00  0.00    -0.196 N 
ATOM     23  C   UNK A   3      10.061   4.142   8.758  0.00  0.00    +0.173 C 
ATOM     24  C   UNK A   3       8.979   3.055   8.769  0.00  0.00    +0.262 C 
ATOM     25  O   UNK A   3       7.961   3.168   8.081  0.00  0.00    -0.271 OA
ATOM     26  C   UNK A   3       9.767   5.256   9.801  0.00  0.00    +0.029 C 
ATOM     27  C   UNK A   3      11.098   5.804  10.333  0.00  0.00    +0.002 C 
ATOM     28  C   UNK A   3       8.889   4.747  10.956  0.00  0.00    +0.002 C 
ATOM     29  C   UNK A   3      10.989   7.051  11.173  0.00  0.00    +0.000 C 
ATOM     30  N   UNK A   3       9.225   2.008   9.547  0.00  0.00    -0.196 N 
ATOM     31  C   UNK A   3       8.238   0.965   9.797  0.00  0.00    +0.173 C 
ATOM     32  C   UNK A   3       8.167   0.806  11.311  0.00  0.00    +0.262 C 
ATOM     33  O   UNK A   3       9.180   0.498  11.939  0.00  0.00    -0.271 OA
ATOM     34  C   UNK A   3       8.718  -0.337   9.145  0.00  0.00    +0.031 C 
ATOM     35  C   UNK A   3       7.867  -1.599   9.255  0.00  0.00    +0.002 C 
ATOM     36  C   UNK A   3       6.442  -1.324   8.812  0.00  0.00    +0.000 C 
ATOM     37  C   UNK A   3       8.508  -2.678   8.379  0.00  0.00    +0.000 C 
ATOM     38  N   UNK A   3       6.999   1.063  11.901  0.00  0.00    -0.196 N 
ATOM     39  C   UNK A   3       6.869   1.079  13.361  0.00  0.00    +0.173 C 
ATOM     40  C   UNK A   3       5.448   0.720  13.786  0.00  0.00    +0.262 C 
ATOM     41  O   UNK A   3       4.482   1.041  13.080  0.00  0.00    -0.271 OA
ATOM     42  C   UNK A   3       7.262   2.469  13.953  0.00  0.00    +0.029 C 
ATOM     43  C   UNK A   3       6.324   3.566  13.461  0.00  0.00    +0.002 C 
ATOM     44  C   UNK A   3       7.287   2.428  15.474  0.00  0.00    +0.002 C 
ATOM     45  N   UNK A   3       5.337   0.073  14.943  0.00  0.00    -0.196 N 
ATOM     46  C   UNK A   3       4.058  -0.062  15.648  0.00  0.00    +0.173 C 
ATOM     47  C   UNK A   3       4.179   0.694  16.961  0.00  0.00    +0.262 C 
ATOM     48  O   UNK A   3       5.093   0.415  17.739  0.00  0.00    -0.271 OA
ATOM     49  C   UNK A   3       3.772  -1.531  15.931  0.00  0.00    +0.033 C 
ATOM     50  N   UNK A   3       3.288   1.659  17.194  0.00  0.00    -0.196 N 
ATOM     51  C   UNK A   3       3.299   2.402  18.459  0.00  0.00    +0.179 C 
ATOM     52  C   UNK A   3       1.884   2.583  18.987  0.00  0.00    +0.262 C 
ATOM     53  O   UNK A   3       0.921   2.554  18.211  0.00  0.00    -0.271 OA
ATOM     54  C   UNK A   3       4.035   3.755  18.332  0.00  0.00    +0.079 C 
ATOM     55  C   UNK A   3       3.290   4.821  17.575  0.00  0.00    +0.082 A 
ATOM     56  N   UNK A   3       2.129   5.405  18.041  0.00  0.00    -0.227 N 
ATOM     57  C   UNK A   3       3.599   5.474  16.426  0.00  0.00    +0.115 A 
ATOM     58  C   UNK A   3       1.730   6.335  17.189  0.00  0.00    +0.199 A 
ATOM     59  N   UNK A   3       2.609   6.403  16.204  0.00  0.00    -0.221 NA
ATOM     60  N   UNK A   3       1.748   2.753  20.301  0.00  0.00    -0.196 N 
ATOM     61  C   UNK A   3       0.417   2.918  20.879  0.00  0.00    +0.184 C 
ATOM     62  C   UNK A   3      -0.020   4.372  20.971  0.00  0.00    +0.262 C 
ATOM     63  O   UNK A   3       0.617   5.264  20.389  0.00  0.00    -0.271 OA
ATOM     64  C   UNK A   3       0.248   2.151  22.193  0.00  0.00    +0.145 C 
ATOM     65  C   UNK A   3       0.813   2.883  23.398  0.00  0.00    +0.367 C 
ATOM     66  O   UNK A   3       1.350   4.004  23.255  0.00  0.00    -0.246 OA
ATOM     67  O   UNK A   3       0.706   2.313  24.507  0.00  0.00    -0.246 OA
ATOM     68  N   UNK A   3      -1.130   4.619  21.659  0.00  0.00    -0.204 N 
ATOM     69  C   UNK A   3      -1.672   5.970  21.696  0.00  0.00    +0.115 C 
ATOM     70  C   UNK A   3      -3.078   5.985  22.285  0.00  0.00    +0.023 C 
ATOM     71  C   UNK A   3      -4.144   5.314  21.413  0.00  0.00    +0.002 C 
ATOM     72  C   UNK A   3      -5.439   5.163  22.190  0.00  0.00    +0.000 C 
ATOM     73  C   UNK A   3      -4.392   6.085  20.124  0.00  0.00    +0.000 C 
ATOM     74  H   THR A   1      13.826   4.468  -2.850  0.00  0.00    +0.000 HD
ATOM     75  H   THR A   1      14.050   3.211  -1.780  0.00  0.00    +0.000 HD
ATOM     76  H   THR A   1      14.996   4.577  -1.669  0.00  0.00    +0.000 HD
ATOM     77  H   THR A   1      11.303   5.720  -2.661  0.00  0.00    +0.000 HD
ATOM     78  H   LEU A   2      13.119   6.331   1.080  0.00  0.00    +0.000 HD
ATOM     79  H   UNK A   3      12.573   3.597   4.391  0.00  0.00    +0.000 HD
ATOM     80  H   UNK A   3      10.428   3.503   2.616  0.00  0.00    +0.000 HD
ATOM     81  H   UNK A   3       9.750   5.525   7.177  0.00  0.00    +0.000 HD
ATOM     82  H   UNK A   3      10.110   1.933   9.972  0.00  0.00    +0.000 HD
ATOM     83  H   UNK A   3       6.208   1.246  11.345  0.00  0.00    +0.000 HD
ATOM     84  H   UNK A   3       6.143  -0.330  15.340  0.00  0.00    +0.000 HD
ATOM     85  H   UNK A   3       2.615   1.875  16.509  0.00  0.00    +0.000 HD
ATOM     86  H   UNK A   3       1.669   5.166  18.878  0.00  0.00    +0.000 HD
ATOM     87  H   UNK A   3       2.543   2.767  20.881  0.00  0.00    +0.000 HD
ATOM     88  H   UNK A   3      -1.584   3.891  22.142  0.00  0.00    +0.000 HD
TER 
REMARK  Name = /mnt/c/Personal/tickdock/data/docking/counterdock_calibration/2W9H_protein.pdb
REMARK                            x       y       z     vdW  Elec       q    Type
REMARK                         _______ _______ _______ _____ _____    ______ ____
ATOM      1  C   UNL     1      -0.771   6.983  22.392  0.00  0.00    +0.341 C 
ATOM      2  O   UNL     1      -0.944   8.195  22.196  0.00  0.00    -0.262 OA
ATOM      3  N   UNL     1       0.180   6.490  23.182  0.00  0.00    -0.080 N 
ATOM      4  H   UNL     1       0.796   7.099  23.650  0.00  0.00    +0.000 HD
ATOM      5  H   UNL     1       0.268   5.516  23.298  0.00  0.00    +0.000 HD
TER 
REMARK  Name = /mnt/c/Personal/tickdock/data/docking/counterdock_calibration/2W9H_protein.pdb
REMARK                            x       y       z     vdW  Elec       q    Type
REMARK                         _______ _______ _______ _____ _____    ______ ____
ATOM      1  N   UNL     2       0.165   6.502  23.209  0.00  0.00    -0.130 N 
ATOM      2  C   UNL     2       1.148   7.346  23.867  0.00  0.00    +0.130 C 
ATOM      3  H   UNL     2      -0.357   7.055  22.529  0.00  0.00    +0.000 HD
ATOM      4  H   UNL     2      -0.478   6.123  23.904  0.00  0.00    +0.000 HD
ATOM      5  H   UNL     2       0.640   5.736  22.732  0.00  0.00    +0.000 HD
TER 
REMARK  Name = /mnt/c/Personal/tickdock/data/docking/counterdock_calibration/2W9H_protein.pdb
REMARK                            x       y       z     vdW  Elec       q    Type
REMARK                         _______ _______ _______ _____ _____    ______ ____
ATOM      1  C   UNL     1       1.149   7.390  23.842  0.00  0.00    +0.000 C 
TER 
REMARK  Name = /mnt/c/Personal/tickdock/data/docking/counterdock_calibration/2W9H_protein.pdb
REMARK                            x       y       z     vdW  Elec       q    Type
REMARK                         _______ _______ _______ _____ _____    ______ ____
ATOM      1  C   UNL     4       2.548   7.118  23.283  0.00  0.00    +0.279 C 
ATOM      2  O   UNL     4       3.566   7.367  23.944  0.00  0.00    -0.279 OA
TER 
REMARK  Name = /mnt/c/Personal/tickdock/data/docking/counterdock_calibration/2W9H_protein.pdb
REMARK                            x       y       z     vdW  Elec       q    Type
REMARK                         _______ _______ _______ _____ _____    ______ ____
ATOM      1  C   UNL     5       2.532   7.236  23.225  0.00  0.00    +0.279 C 
ATOM      2  O   UNL     5       3.528   7.713  23.775  0.00  0.00    -0.279 OA
TER 
REMARK  Name = /mnt/c/Personal/tickdock/data/docking/counterdock_calibration/2W9H_protein.pdb
REMARK                            x       y       z     vdW  Elec       q    Type
REMARK                         _______ _______ _______ _____ _____    ______ ____
ATOM      1  C   UNL     2       1.130   7.257  25.374  0.00  0.00    +0.010 C 
ATOM      2  C   UNL     2      -0.175   7.717  26.041  0.00  0.00    +0.098 C 
ATOM      3  C   UNL     2      -0.091   7.131  26.100  0.00  0.00    +0.089 C 
ATOM      4  C   UNL     2      -0.306   9.237  26.145  0.00  0.00    +0.261 C 
ATOM      5  C   UNL     2       0.106   7.256  27.595  0.00  0.00    +0.261 C 
ATOM      6  O   UNL     2       0.034   9.974  25.218  0.00  0.00    -0.272 OA
ATOM      7  O   UNL     2       0.528   6.302  28.263  0.00  0.00    -0.272 OA
ATOM      8  N   UNL     2      -0.820   9.707  27.281  0.00  0.00    -0.088 N 
ATOM      9  N   UNL     2      -0.182   8.441  28.134  0.00  0.00    -0.088 N 
ATOM     10  H   UNL     2      -1.363  10.493  27.518  0.00  0.00    +0.000 HD
ATOM     11  H   UNL     2      -0.005   8.570  29.094  0.00  0.00    +0.000 HD
TER 
REMARK  Name = /mnt/c/Personal/tickdock/data/docking/counterdock_calibration/2W9H_protein.pdb
REMARK                            x       y       z     vdW  Elec       q    Type
REMARK                         _______ _______ _______ _____ _____    ______ ____
ATOM      1  C   UNL     3       1.226   6.985  25.353  0.00  0.00    +0.000 C 
TER 
REMARK  Name = /mnt/c/Personal/tickdock/data/docking/counterdock_calibration/2W9H_protein.pdb
REMARK                            x       y       z     vdW  Elec       q    Type
REMARK                         _______ _______ _______ _____ _____    ______ ____
ATOM      1  N   UNL     4       2.578   6.605  22.055  0.00  0.00    -0.123 N 
ATOM      2  C   UNL     4       3.823   6.394  21.311  0.00  0.00    +0.169 C 
ATOM      3  C   UNL     4       4.749   5.337  21.923  0.00  0.00    +0.259 C 
ATOM      4  O   UNL     4       5.932   5.248  21.581  0.00  0.00    -0.272 OA
ATOM      5  C   UNL     4       4.558   7.712  21.038  0.00  0.00    +0.030 C 
ATOM      6  C   UNL     4       3.880   8.573  19.959  0.00  0.00    +0.028 C 
ATOM      7  C   UNL     4       4.528   9.960  19.860  0.00  0.00    +0.129 C 
ATOM      8  N   UNL     4       4.314  10.723  21.086  0.00  0.00    -0.234 N 
ATOM      9  C   UNL     4       5.214  10.885  22.059  0.00  0.00    +0.284 C 
ATOM     10  N   UNL     4       6.446  10.387  21.955  0.00  0.00    -0.104 N 
ATOM     11  N   UNL     4       4.889  11.579  23.143  0.00  0.00    -0.104 N 
ATOM     12  N   UNL     4       4.203   4.498  22.798  0.00  0.00    -0.197 N 
ATOM     13  C   UNL     4       4.970   3.366  23.326  0.00  0.00    +0.173 C 
ATOM     14  C   UNL     4       5.346   2.423  22.184  0.00  0.00    +0.262 C 
ATOM     15  O   UNL     4       4.494   2.072  21.358  0.00  0.00    -0.271 OA
ATOM     16  C   UNL     4       4.156   2.594  24.380  0.00  0.00    +0.029 C 
ATOM     17  C   UNL     4       4.849   1.292  24.753  0.00  0.00    +0.002 C 
ATOM     18  C   UNL     4       3.957   3.462  25.612  0.00  0.00    +0.002 C 
ATOM     19  N   UNL     4       6.611   2.005  22.158  0.00  0.00    -0.196 N 
ATOM     20  C   UNL     4       7.079   1.013  21.198  0.00  0.00    +0.173 C 
ATOM     21  C   UNL     4       7.760  -0.182  21.858  0.00  0.00    +0.262 C 
ATOM     22  O   UNL     4       8.313  -1.045  21.181  0.00  0.00    -0.271 OA
ATOM     23  C   UNL     4       8.031   1.616  20.133  0.00  0.00    +0.029 C 
ATOM     24  C   UNL     4       9.280   2.222  20.781  0.00  0.00    +0.002 C 
ATOM     25  C   UNL     4       7.286   2.618  19.257  0.00  0.00    +0.002 C 
ATOM     26  C   UNL     4      10.287   2.749  19.763  0.00  0.00    +0.000 C 
ATOM     27  N   UNL     4       7.725  -0.241  23.178  0.00  0.00    -0.194 N 
ATOM     28  C   UNL     4       8.262  -1.393  23.866  0.00  0.00    +0.201 C 
ATOM     29  C   UNL     4       8.145  -1.254  25.358  0.00  0.00    +0.264 C 
ATOM     30  O   UNL     4       7.979  -0.148  25.882  0.00  0.00    -0.271 OA
ATOM     31  N   UNL     4       8.225  -2.395  26.036  0.00  0.00    -0.196 N 
ATOM     32  C   UNL     4       8.304  -2.443  27.481  0.00  0.00    +0.177 C 
ATOM     33  C   UNL     4       9.171  -3.635  27.831  0.00  0.00    +0.262 C 
ATOM     34  O   UNL     4       8.923  -4.737  27.350  0.00  0.00    -0.271 OA
ATOM     35  C   UNL     4       6.914  -2.616  28.087  0.00  0.00    +0.057 C 
ATOM     36  C   UNL     4       6.903  -2.581  29.584  0.00  0.00    -0.020 A 
ATOM     37  C   UNL     4       7.366  -1.463  30.271  0.00  0.00    -0.004 A 
ATOM     38  C   UNL     4       6.446  -3.672  30.310  0.00  0.00    -0.004 A 
ATOM     39  C   UNL     4       7.366  -1.428  31.658  0.00  0.00    -0.000 A 
ATOM     40  C   UNL     4       6.433  -3.641  31.698  0.00  0.00    -0.000 A 
ATOM     41  C   UNL     4       6.901  -2.522  32.371  0.00  0.00    -0.000 A 
ATOM     42  N   UNL     4      10.208  -3.412  28.630  0.00  0.00    -0.196 N 
ATOM     43  C   UNL     4      11.083  -4.507  29.039  0.00  0.00    +0.173 C 
ATOM     44  C   UNL     4      11.567  -5.309  27.826  0.00  0.00    +0.262 C 
ATOM     45  O   UNL     4      11.602  -6.549  27.829  0.00  0.00    -0.271 OA
ATOM     46  C   UNL     4      10.396  -5.379  30.104  0.00  0.00    +0.043 C 
ATOM     47  C   UNL     4      10.165  -4.601  31.398  0.00  0.00    +0.116 C 
ATOM     48  C   UNL     4       9.384  -5.352  32.460  0.00  0.00    +0.365 C 
ATOM     49  O   UNL     4       8.701  -6.336  32.133  0.00  0.00    -0.246 OA
ATOM     50  O   UNL     4       9.431  -4.909  33.629  0.00  0.00    -0.246 OA
ATOM     51  N   UNL     4      11.941  -4.556  26.791  0.00  0.00    -0.196 N 
ATOM     52  C   UNL     4      12.538  -5.073  25.572  0.00  0.00    +0.182 C 
ATOM     53  C   UNL     4      11.642  -5.914  24.676  0.00  0.00    +0.262 C 
ATOM     54  O   UNL     4      12.122  -6.633  23.796  0.00  0.00    -0.271 OA
ATOM     55  C   UNL     4      13.868  -5.770  25.830  0.00  0.00    +0.120 C 
ATOM     56  C   UNL     4      14.779  -5.711  24.627  0.00  0.00    +0.263 C 
ATOM     57  O   UNL     4      14.677  -4.798  23.803  0.00  0.00    -0.272 OA
ATOM     58  N   UNL     4      15.665  -6.683  24.507  0.00  0.00    -0.088 N 
ATOM     59  N   UNL     4      10.339  -5.797  24.888  0.00  0.00    -0.196 N 
ATOM     60  C   UNL     4       9.359  -6.527  24.091  0.00  0.00    +0.173 C 
ATOM     61  C   UNL     4       8.215  -5.607  23.690  0.00  0.00    +0.262 C 
ATOM     62  O   UNL     4       7.998  -4.571  24.305  0.00  0.00    -0.271 OA
ATOM     63  C   UNL     4       8.787  -7.680  24.905  0.00  0.00    +0.041 C 
ATOM     64  C   UNL     4       9.842  -8.540  25.578  0.00  0.00    +0.091 C 
ATOM     65  C   UNL     4       9.319  -9.228  26.828  0.00  0.00    +0.261 C 
ATOM     66  O   UNL     4       9.768  -8.946  27.949  0.00  0.00    -0.272 OA
ATOM     67  N   UNL     4       8.370 -10.142  26.644  0.00  0.00    -0.088 N 
ATOM     68  N   UNL     4       7.474  -6.000  22.667  0.00  0.00    -0.196 N 
ATOM     69  C   UNL     4       6.201  -5.351  22.382  0.00  0.00    +0.171 C 
ATOM     70  C   UNL     4       5.188  -5.691  23.479  0.00  0.00    +0.246 C 
ATOM     71  O   UNL     4       4.995  -6.863  23.792  0.00  0.00    -0.273 OA
ATOM     72  C   UNL     4       5.679  -5.819  21.022  0.00  0.00    +0.031 C 
ATOM     73  C   UNL     4       6.594  -5.522  19.835  0.00  0.00    +0.002 C 
ATOM     74  C   UNL     4       6.043  -6.172  18.572  0.00  0.00    +0.000 C 
ATOM     75  C   UNL     4       6.728  -4.015  19.667  0.00  0.00    +0.000 C 
ATOM     76  N   UNL     4       4.542  -4.673  24.082  0.00  0.00    -0.264 N 
ATOM     77  C   UNL     4       3.596  -4.986  25.167  0.00  0.00    +0.176 C 
ATOM     78  C   UNL     4       2.286  -5.624  24.703  0.00  0.00    +0.264 C 
ATOM     79  O   UNL     4       1.551  -6.206  25.518  0.00  0.00    -0.271 OA
ATOM     80  C   UNL     4       3.336  -3.630  25.851  0.00  0.00    -0.000 C 
ATOM     81  C   UNL     4       3.943  -2.605  25.009  0.00  0.00    -0.007 C 
ATOM     82  C   UNL     4       4.706  -3.225  23.863  0.00  0.00    +0.120 C 
ATOM     83  N   UNL     4       1.992  -5.514  23.410  0.00  0.00    -0.203 N 
ATOM     84  C   UNL     4       0.819  -6.146  22.802  0.00  0.00    +0.120 C 
ATOM     85  C   UNL     4       0.071  -5.141  21.909  0.00  0.00    +0.051 C 
ATOM     86  C   UNL     4       0.997  -4.465  20.960  0.00  0.00    -0.000 C 
ATOM     87  C   UNL     4       1.440  -4.946  19.767  0.00  0.00    +0.094 C 
ATOM     88  C   UNL     4       1.672  -3.222  21.173  0.00  0.00    +0.011 C 
ATOM     89  N   UNL     4       2.331  -4.062  19.202  0.00  0.00    -0.248 NA
ATOM     90  C   UNL     4       2.490  -2.994  20.047  0.00  0.00    +0.063 C 
ATOM     91  C   UNL     4       1.641  -2.264  22.197  0.00  0.00    +0.001 C 
ATOM     92  C   UNL     4       3.279  -1.837  19.913  0.00  0.00    +0.072 C 
ATOM     93  C   UNL     4       2.419  -1.117  22.066  0.00  0.00    -0.004 C 
ATOM     94  C   UNL     4       3.236  -0.916  20.934  0.00  0.00    -0.020 C 
ATOM     95  H   UNL     4       2.019   7.319  21.587  0.00  0.00    +0.000 HD
ATOM     96  H   UNL     4       2.796   6.911  23.003  0.00  0.00    +0.000 HD
ATOM     97  H   UNL     4       2.052   5.732  22.092  0.00  0.00    +0.000 HD
ATOM     98  H   UNL     4       3.436  11.152  21.205  0.00  0.00    +0.000 HD
ATOM     99  H   UNL     4       6.702   9.870  21.157  0.00  0.00    +0.000 HD
ATOM    100  H   UNL     4       7.100  10.536  22.676  0.00  0.00    +0.000 HD
ATOM    101  H   UNL     4       3.983  11.953  23.235  0.00  0.00    +0.000 HD
ATOM    102  H   UNL     4       5.554  11.719  23.855  0.00  0.00    +0.000 HD
ATOM    103  H   UNL     4       3.275   4.638  23.094  0.00  0.00    +0.000 HD
ATOM    104  H   UNL     4       7.250   2.378  22.808  0.00  0.00    +0.000 HD
ATOM    105  H   UNL     4       7.333   0.501  23.693  0.00  0.00    +0.000 HD
ATOM    106  H   UNL     4       8.231  -3.242  25.535  0.00  0.00    +0.000 HD
ATOM    107  H   UNL     4      10.389  -2.499  28.950  0.00  0.00    +0.000 HD
ATOM    108  H   UNL     4      11.803  -3.583  26.858  0.00  0.00    +0.000 HD
ATOM    109  H   UNL     4      16.284  -6.693  23.741  0.00  0.00    +0.000 HD
ATOM    110  H   UNL     4      15.707  -7.397  25.183  0.00  0.00    +0.000 HD
ATOM    111  H   UNL     4      10.023  -5.200  25.604  0.00  0.00    +0.000 HD
ATOM    112  H   UNL     4       8.042 -10.335  25.736  0.00  0.00    +0.000 HD
ATOM    113  H   UNL     4       7.996 -10.625  27.416  0.00  0.00    +0.000 HD
ATOM    114  H   UNL     4       7.785  -6.737  22.093  0.00  0.00    +0.000 HD
ATOM    115  H   UNL     4       2.590  -4.984  22.836  0.00  0.00    +0.000 HD
TER 
REMARK  Name = /mnt/c/Personal/tickdock/data/docking/counterdock_calibration/2W9H_protein.pdb
REMARK                            x       y       z     vdW  Elec       q    Type
REMARK                         _______ _______ _______ _____ _____    ______ ____
ATOM      1  C   UNL     7       1.269  -7.331  21.958  0.00  0.00    +0.341 C 
ATOM      2  O   UNL     7       2.427  -7.406  21.541  0.00  0.00    -0.262 OA
ATOM      3  N   UNL     7       0.345  -8.250  21.701  0.00  0.00    -0.080 N 
ATOM      4  H   UNL     7       0.572  -9.037  21.154  0.00  0.00    +0.000 HD
ATOM      5  H   UNL     7      -0.567  -8.144  22.057  0.00  0.00    +0.000 HD
TER 
REMARK  Name = /mnt/c/Personal/tickdock/data/docking/counterdock_calibration/2W9H_protein.pdb
REMARK                            x       y       z     vdW  Elec       q    Type
REMARK                         _______ _______ _______ _____ _____    ______ ____
ATOM      1  N   UNL     8       0.342  -8.249  21.693  0.00  0.00    -0.130 N 
ATOM      2  C   UNL     8       0.626  -9.380  20.826  0.00  0.00    +0.130 C 
ATOM      3  H   UNL     8       1.007  -7.499  21.502  0.00  0.00    +0.000 HD
ATOM      4  H   UNL     8       0.426  -8.538  22.668  0.00  0.00    +0.000 HD
ATOM      5  H   UNL     8      -0.606  -7.916  21.518  0.00  0.00    +0.000 HD
TER 
REMARK  Name = /mnt/c/Personal/tickdock/data/docking/counterdock_calibration/2W9H_protein.pdb
REMARK                            x       y       z     vdW  Elec       q    Type
REMARK                         _______ _______ _______ _____ _____    ______ ____
ATOM      1  C   UNL     5       0.617  -9.405  20.840  0.00  0.00    +0.007 C 
ATOM      2  C   UNL     5       0.439 -10.699  21.580  0.00  0.00    +0.047 C 
ATOM      3  C   UNL     5      -0.416 -11.733  20.981  0.00  0.00    +0.080 A 
ATOM      4  N   UNL     5      -1.717 -11.962  21.374  0.00  0.00    -0.227 N 
ATOM      5  C   UNL     5      -0.170 -12.605  19.974  0.00  0.00    +0.115 A 
ATOM      6  C   UNL     5      -2.238 -12.924  20.632  0.00  0.00    +0.199 A 
ATOM      7  N   UNL     5      -1.321 -13.329  19.772  0.00  0.00    -0.221 NA
ATOM      8  H   UNL     5      -2.186 -11.483  22.095  0.00  0.00    +0.000 HD
TER 
REMARK  Name = /mnt/c/Personal/tickdock/data/docking/counterdock_calibration/2W9H_protein.pdb
REMARK                            x       y       z     vdW  Elec       q    Type
REMARK                         _______ _______ _______ _____ _____    ______ ____
ATOM      1  C   UNL     9      -0.294  -9.306  19.624  0.00  0.00    +0.279 C 
ATOM      2  O   UNL     9      -1.487  -9.582  19.727  0.00  0.00    -0.279 OA
TER 
REMARK  Name = /mnt/c/Personal/tickdock/data/docking/counterdock_calibration/2W9H_protein.pdb
REMARK                            x       y       z     vdW  Elec       q    Type
REMARK                         _______ _______ _______ _____ _____    ______ ____
ATOM      1  C   UNL     6      -0.278  -9.387  19.604  0.00  0.00    +0.000 C 
TER 
REMARK  Name = /mnt/c/Personal/tickdock/data/docking/counterdock_calibration/2W9H_protein.pdb
REMARK                            x       y       z     vdW  Elec       q    Type
REMARK                         _______ _______ _______ _____ _____    ______ ____
ATOM      1  O   UNL     7      -1.440  -9.789  19.662  0.00  0.00    +0.000 OA
ATOM      2  H   UNL     7      -0.470  -9.789  19.662  0.00  0.00    +0.000 HD
ATOM      3  H   UNL     7      -1.763  -9.034  20.178  0.00  0.00    +0.000 HD
TER 
REMARK  Name = /mnt/c/Personal/tickdock/data/docking/counterdock_calibration/2W9H_protein.pdb
REMARK                            x       y       z     vdW  Elec       q    Type
REMARK                         _______ _______ _______ _____ _____    ______ ____
ATOM      1  C   UNL     8       0.456 -10.709  21.639  0.00  0.00    +0.054 C 
ATOM      2  C   UNL     8       1.280 -10.801  22.814  0.00  0.00    +0.080 A 
ATOM      3  N   UNL     8       0.789 -10.527  24.073  0.00  0.00    -0.227 N 
ATOM      4  C   UNL     8       2.585 -11.119  22.980  0.00  0.00    +0.115 A 
ATOM      5  C   UNL     8       1.752 -10.688  24.963  0.00  0.00    +0.199 A 
ATOM      6  N   UNL     8       2.852 -11.048  24.326  0.00  0.00    -0.221 NA
ATOM      7  H   UNL     8      -0.135 -10.254  24.277  0.00  0.00    +0.000 HD
TER 
REMARK  Name = /mnt/c/Personal/tickdock/data/docking/counterdock_calibration/2W9H_protein.pdb
REMARK                            x       y       z     vdW  Elec       q    Type
REMARK                         _______ _______ _______ _____ _____    ______ ____
ATOM      1  N   LEU F   1       0.269  -8.910  18.488  0.00  0.00    -0.123 N 
ATOM      2  CA  LEU F   1      -0.516  -8.711  17.274  0.00  0.00    +0.168 C 
ATOM      3  C   LEU F   1       0.140  -9.377  16.080  0.00  0.00    +0.243 C 
ATOM      4  O   LEU F   1       0.857  -8.735  15.315  0.00  0.00    -0.273 OA
ATOM      5  CB  LEU F   1      -0.708  -7.228  16.971  0.00  0.00    +0.028 C 
ATOM      6  CG  LEU F   1      -1.758  -6.442  17.743  0.00  0.00    +0.002 C 
ATOM      7  CD1 LEU F   1      -1.734  -5.009  17.237  0.00  0.00    +0.000 C 
ATOM      8  CD2 LEU F   1      -3.165  -7.059  17.596  0.00  0.00    +0.000 C 
ATOM      9  N   PRO F   2      -0.107 -10.680  15.914  0.00  0.00    -0.272 N 
ATOM     10  CA  PRO F   2       0.377 -11.351  14.704  0.00  0.00    +0.154 C 
ATOM     11  C   PRO F   2      -0.038 -10.627  13.417  0.00  0.00    +0.260 C 
ATOM     12  O   PRO F   2       0.688 -10.664  12.426  0.00  0.00    -0.272 OA
ATOM     13  CB  PRO F   2      -0.275 -12.730  14.786  0.00  0.00    +0.031 C 
ATOM     14  CG  PRO F   2      -0.486 -12.952  16.256  0.00  0.00    +0.024 C 
ATOM     15  CD  PRO F   2      -0.784 -11.601  16.846  0.00  0.00    +0.094 C 
ATOM     16  N   ASN F   3      -1.177  -9.944  13.428  0.00  0.00    -0.196 N 
ATOM     17  CA  ASN F   3      -1.600  -9.207  12.239  0.00  0.00    +0.182 C 
ATOM     18  C   ASN F   3      -0.618  -8.082  11.886  0.00  0.00    +0.262 C 
ATOM     19  O   ASN F   3      -0.385  -7.787  10.710  0.00  0.00    -0.271 OA
ATOM     20  CB  ASN F   3      -3.006  -8.633  12.420  0.00  0.00    +0.120 C 
ATOM     21  CG  ASN F   3      -3.626  -8.208  11.117  0.00  0.00    +0.263 C 
ATOM     22  OD1 ASN F   3      -3.594  -8.954  10.131  0.00  0.00    -0.272 OA
ATOM     23  ND2 ASN F   3      -4.214  -7.014  11.100  0.00  0.00    -0.088 N 
ATOM     24  N   ASP F   4      -0.038  -7.458  12.908  0.00  0.00    -0.196 N 
ATOM     25  CA  ASP F   4       0.990  -6.455  12.664  0.00  0.00    +0.184 C 
ATOM     26  C   ASP F   4       2.253  -7.111  12.120  0.00  0.00    +0.262 C 
ATOM     27  O   ASP F   4       2.888  -6.585  11.205  0.00  0.00    -0.271 OA
ATOM     28  CB  ASP F   4       1.312  -5.655  13.931  0.00  0.00    +0.145 C 
ATOM     29  CG  ASP F   4       2.530  -4.765  13.748  0.00  0.00    +0.367 C 
ATOM     30  OD1 ASP F   4       2.459  -3.808  12.942  0.00  0.00    -0.246 OA
ATOM     31  OD2 ASP F   4       3.570  -5.048  14.377  0.00  0.00    -0.246 OA
ATOM     32  N   LEU F   5       2.620  -8.266  12.671  0.00  0.00    -0.196 N 
ATOM     33  CA  LEU F   5       3.793  -8.960  12.159  0.00  0.00    +0.173 C 
ATOM     34  C   LEU F   5       3.608  -9.395  10.696  0.00  0.00    +0.262 C 
ATOM     35  O   LEU F   5       4.558  -9.385   9.913  0.00  0.00    -0.271 OA
ATOM     36  CB  LEU F   5       4.179 -10.133  13.073  0.00  0.00    +0.031 C 
ATOM     37  CG  LEU F   5       4.286  -9.742  14.558  0.00  0.00    +0.002 C 
ATOM     38  CD2 LEU F   5       4.817 -10.894  15.410  0.00  0.00    +0.000 C 
ATOM     39  CD1 LEU F   5       5.145  -8.489  14.739  0.00  0.00    +0.000 C 
ATOM     40  N   LYS F   6       2.380  -9.752  10.325  0.00  0.00    -0.196 N 
ATOM     41  CA  LYS F   6       2.051 -10.089   8.933  0.00  0.00    +0.173 C 
ATOM     42  C   LYS F   6       2.155  -8.857   8.022  0.00  0.00    +0.262 C 
ATOM     43  O   LYS F   6       2.634  -8.939   6.893  0.00  0.00    -0.271 OA
ATOM     44  CB  LYS F   6       0.645 -10.692   8.867  0.00  0.00    +0.031 C 
ATOM     45  CG  LYS F   6       0.182 -11.099   7.471  0.00  0.00    +0.004 C 
ATOM     46  CD  LYS F   6      -1.217 -11.703   7.538  0.00  0.00    +0.021 C 
ATOM     47  CE  LYS F   6      -1.903 -11.729   6.183  0.00  0.00    +0.109 C 
ATOM     48  NZ  LYS F   6      -3.343 -12.076   6.334  0.00  0.00    -0.131 N 
ATOM     49  N   HIS F   7       1.727  -7.712   8.540  0.00  0.00    -0.196 N 
ATOM     50  CA  HIS F   7       1.886  -6.432   7.859  0.00  0.00    +0.178 C 
ATOM     51  C   HIS F   7       3.371  -6.166   7.577  0.00  0.00    +0.262 C 
ATOM     52  O   HIS F   7       3.760  -5.827   6.455  0.00  0.00    -0.271 OA
ATOM     53  CB  HIS F   7       1.279  -5.343   8.761  0.00  0.00    +0.074 C 
ATOM     54  CG  HIS F   7       1.325  -3.958   8.200  0.00  0.00    +0.065 C 
ATOM     55  ND1 HIS F   7       0.590  -3.575   7.101  0.00  0.00    -0.231 NA
ATOM     56  CD2 HIS F   7       1.969  -2.845   8.630  0.00  0.00    +0.168 C 
ATOM     57  CE1 HIS F   7       0.798  -2.291   6.861  0.00  0.00    +0.194 C 
ATOM     58  NE2 HIS F   7       1.631  -1.825   7.774  0.00  0.00    -0.244 NA
ATOM     59  N   VAL F   8       4.199  -6.331   8.601  0.00  0.00    -0.196 N 
ATOM     60  CA  VAL F   8       5.641  -6.197   8.444  0.00  0.00    +0.173 C 
ATOM     61  C   VAL F   8       6.176  -7.138   7.355  0.00  0.00    +0.262 C 
ATOM     62  O   VAL F   8       6.970  -6.721   6.515  0.00  0.00    -0.271 OA
ATOM     63  CB  VAL F   8       6.377  -6.456   9.779  0.00  0.00    +0.029 C 
ATOM     64  CG1 VAL F   8       7.883  -6.608   9.535  0.00  0.00    +0.002 C 
ATOM     65  CG2 VAL F   8       6.106  -5.320  10.772  0.00  0.00    +0.002 C 
ATOM     66  N   LYS F   9       5.738  -8.398   7.374  0.00  0.00    -0.196 N 
ATOM     67  CA  LYS F   9       6.170  -9.385   6.380  0.00  0.00    +0.173 C 
ATOM     68  C   LYS F   9       5.792  -8.917   4.971  0.00  0.00    +0.262 C 
ATOM     69  O   LYS F   9       6.614  -8.967   4.052  0.00  0.00    -0.271 OA
ATOM     70  CB  LYS F   9       5.537 -10.743   6.696  0.00  0.00    +0.031 C 
ATOM     71  CG  LYS F   9       5.789 -11.836   5.666  0.00  0.00    +0.004 C 
ATOM     72  CD  LYS F   9       5.086 -13.125   6.093  0.00  0.00    +0.021 C 
ATOM     73  CE  LYS F   9       5.229 -14.237   5.060  0.00  0.00    +0.109 C 
ATOM     74  NZ  LYS F   9       4.404 -15.435   5.420  0.00  0.00    -0.131 N 
ATOM     75  N   LYS F  10       4.556  -8.451   4.808  0.00  0.00    -0.196 N 
ATOM     76  CA  LYS F  10       4.062  -8.051   3.492  0.00  0.00    +0.173 C 
ATOM     77  C   LYS F  10       4.858  -6.866   2.949  0.00  0.00    +0.262 C 
ATOM     78  O   LYS F  10       5.231  -6.847   1.775  0.00  0.00    -0.271 OA
ATOM     79  CB  LYS F  10       2.561  -7.724   3.535  0.00  0.00    +0.031 C 
ATOM     80  CG  LYS F  10       1.673  -8.949   3.683  0.00  0.00    +0.004 C 
ATOM     81  CD  LYS F  10       0.241  -8.657   3.253  0.00  0.00    +0.021 C 
ATOM     82  CE  LYS F  10      -0.709  -8.615   4.432  0.00  0.00    +0.109 C 
ATOM     83  NZ  LYS F  10      -2.110  -8.861   3.978  0.00  0.00    -0.131 N 
ATOM     84  N   LEU F  11       5.141  -5.887   3.811  0.00  0.00    -0.196 N 
ATOM     85  CA  LEU F  11       5.819  -4.678   3.363  0.00  0.00    +0.173 C 
ATOM     86  C   LEU F  11       7.294  -4.914   3.069  0.00  0.00    +0.262 C 
ATOM     87  O   LEU F  11       7.836  -4.331   2.127  0.00  0.00    -0.271 OA
ATOM     88  CB  LEU F  11       5.699  -3.563   4.397  0.00  0.00    +0.031 C 
ATOM     89  CG  LEU F  11       4.348  -2.856   4.465  0.00  0.00    +0.002 C 
ATOM     90  CD2 LEU F  11       4.284  -1.972   5.701  0.00  0.00    +0.000 C 
ATOM     91  CD1 LEU F  11       4.064  -2.031   3.226  0.00  0.00    +0.000 C 
ATOM     92  N   UNK F  12       7.955  -5.730   3.890  0.00  0.00    -0.194 N 
ATOM     93  C   UNK F  12       9.422  -5.762   3.893  0.00  0.00    +0.205 C 
ATOM     94  C   UNK F  12      10.063  -6.983   3.242  0.00  0.00    +0.264 C 
ATOM     95  O   UNK F  12      11.261  -6.970   2.973  0.00  0.00    -0.271 OA
ATOM     96  C   UNK F  12       9.991  -5.574   5.304  0.00  0.00    +0.213 C 
ATOM     97  O   UNK F  12       9.661  -6.655   6.158  0.00  0.00    -0.218 OA
ATOM     98  N   UNK F  12       9.289  -8.039   3.002  0.00  0.00    -0.194 N 
ATOM     99  C   UNK F  12       9.828  -9.206   2.314  0.00  0.00    +0.203 C 
ATOM    100  C   UNK F  12      10.417  -8.790   0.964  0.00  0.00    +0.264 C 
ATOM    101  O   UNK F  12       9.793  -8.034   0.210  0.00  0.00    -0.271 OA
ATOM    102  C   UNK F  12       8.759 -10.294   2.132  0.00  0.00    +0.181 C 
ATOM    103  O   UNK F  12       8.497 -10.916   3.400  0.00  0.00    -0.221 OA
ATOM    104  C   UNK F  12       9.239 -11.359   1.138  0.00  0.00    +0.038 C 
ATOM    105  N   UNK F  12      11.632  -9.264   0.682  0.00  0.00    -0.194 N 
ATOM    106  C   UNK F  12      12.351  -8.905  -0.543  0.00  0.00    +0.201 C 
ATOM    107  C   UNK F  12      13.035  -7.546  -0.508  0.00  0.00    +0.264 C 
ATOM    108  O   UNK F  12      13.659  -7.131  -1.486  0.00  0.00    -0.271 OA
ATOM    109  N   UNK F  12      12.927  -6.850   0.622  0.00  0.00    -0.196 N 
ATOM    110  C   UNK F  12      13.550  -5.539   0.764  0.00  0.00    +0.179 C 
ATOM    111  C   UNK F  12      14.581  -5.577   1.883  0.00  0.00    +0.262 C 
ATOM    112  O   UNK F  12      15.161  -6.631   2.129  0.00  0.00    -0.271 OA
ATOM    113  C   UNK F  12      12.484  -4.455   0.961  0.00  0.00    +0.079 C 
ATOM    114  C   UNK F  12      11.549  -4.347  -0.202  0.00  0.00    +0.082 A 
ATOM    115  N   UNK F  12      10.193  -4.575  -0.105  0.00  0.00    -0.227 N 
ATOM    116  C   UNK F  12      11.794  -4.085  -1.508  0.00  0.00    +0.115 A 
ATOM    117  C   UNK F  12       9.639  -4.433  -1.297  0.00  0.00    +0.199 A 
ATOM    118  N   UNK F  12      10.588  -4.129  -2.163  0.00  0.00    -0.221 NA
ATOM    119  N   UNK F  12      14.823  -4.443   2.548  0.00  0.00    -0.194 N 
ATOM    120  C   UNK F  12      15.874  -4.346   3.553  0.00  0.00    +0.203 C 
ATOM    121  C   UNK F  12      15.300  -3.750   4.829  0.00  0.00    +0.264 C 
ATOM    122  O   UNK F  12      14.604  -2.726   4.767  0.00  0.00    -0.271 OA
ATOM    123  C   UNK F  12      17.038  -3.463   3.044  0.00  0.00    +0.181 C 
ATOM    124  O   UNK F  12      17.622  -4.091   1.899  0.00  0.00    -0.221 OA
ATOM    125  C   UNK F  12      18.117  -3.291   4.107  0.00  0.00    +0.038 C 
ATOM    126  N   UNK F  12      15.594  -4.388   5.967  0.00  0.00    -0.196 N 
ATOM    127  C   UNK F  12      15.340  -3.813   7.298  0.00  0.00    +0.173 C 
ATOM    128  C   UNK F  12      16.637  -3.325   7.903  0.00  0.00    +0.262 C 
ATOM    129  O   UNK F  12      17.624  -4.064   7.924  0.00  0.00    -0.271 OA
ATOM    130  C   UNK F  12      14.750  -4.867   8.248  0.00  0.00    +0.031 C 
ATOM    131  C   UNK F  12      13.407  -5.488   7.865  0.00  0.00    +0.002 C 
ATOM    132  C   UNK F  12      12.992  -6.504   8.914  0.00  0.00    +0.000 C 
ATOM    133  C   UNK F  12      12.353  -4.408   7.726  0.00  0.00    +0.000 C 
ATOM    134  N   UNK F  12      16.638  -2.093   8.411  0.00  0.00    -0.196 N 
ATOM    135  C   UNK F  12      17.763  -1.599   9.212  0.00  0.00    +0.173 C 
ATOM    136  C   UNK F  12      17.283  -1.402  10.632  0.00  0.00    +0.262 C 
ATOM    137  O   UNK F  12      16.257  -0.751  10.860  0.00  0.00    -0.271 OA
ATOM    138  C   UNK F  12      18.299  -0.251   8.692  0.00  0.00    +0.029 C 
ATOM    139  C   UNK F  12      19.384   0.289   9.636  0.00  0.00    +0.002 C 
ATOM    140  C   UNK F  12      18.837  -0.407   7.273  0.00  0.00    +0.002 C 
ATOM    141  N   UNK F  12      18.016  -1.968  11.585  0.00  0.00    -0.196 N 
ATOM    142  C   UNK F  12      17.585  -1.905  12.976  0.00  0.00    +0.174 C 
ATOM    143  C   UNK F  12      18.783  -1.744  13.901  0.00  0.00    +0.262 C 
ATOM    144  O   UNK F  12      19.898  -2.146  13.567  0.00  0.00    -0.271 OA
ATOM    145  C   UNK F  12      16.808  -3.173  13.367  0.00  0.00    +0.043 C 
ATOM    146  C   UNK F  12      17.673  -4.431  13.439  0.00  0.00    +0.060 C 
ATOM    147  S   UNK F  12      16.697  -5.956  13.425  0.00  0.00    -0.139 S 
ATOM    148  C   UNK F  12      16.373  -6.130  11.664  0.00  0.00    +0.069 C 
ATOM    149  N   UNK F  12      18.540  -1.141  15.059  0.00  0.00    -0.194 N 
ATOM    150  C   UNK F  12      19.519  -1.111  16.132  0.00  0.00    +0.201 C 
ATOM    151  C   UNK F  12      19.789  -2.484  16.724  0.00  0.00    +0.264 C 
ATOM    152  O   UNK F  12      19.014  -3.433  16.533  0.00  0.00    -0.271 OA
ATOM    153  N   UNK F  12      20.901  -2.594  17.444  0.00  0.00    -0.196 N 
ATOM    154  C   UNK F  12      21.293  -3.852  18.060  0.00  0.00    +0.173 C 
ATOM    155  C   UNK F  12      20.264  -4.374  19.066  0.00  0.00    +0.262 C 
ATOM    156  O   UNK F  12      20.005  -5.588  19.134  0.00  0.00    -0.271 OA
ATOM    157  C   UNK F  12      22.654  -3.686  18.725  0.00  0.00    +0.033 C 
ATOM    158  C   UNK F  12      23.189  -4.944  19.340  0.00  0.00    +0.029 C 
ATOM    159  C   UNK F  12      24.573  -4.703  19.898  0.00  0.00    +0.129 C 
ATOM    160  N   UNK F  12      25.105  -5.926  20.476  0.00  0.00    -0.234 N 
ATOM    161  C   UNK F  12      26.372  -6.087  20.829  0.00  0.00    +0.284 C 
ATOM    162  N   UNK F  12      27.234  -5.090  20.667  0.00  0.00    -0.104 N 
ATOM    163  N   UNK F  12      26.774  -7.245  21.337  0.00  0.00    -0.104 N 
ATOM    164  N   UNK F  12      19.672  -3.471  19.846  0.00  0.00    -0.196 N 
ATOM    165  C   UNK F  12      18.692  -3.913  20.846  0.00  0.00    +0.173 C 
ATOM    166  C   UNK F  12      17.465  -4.541  20.207  0.00  0.00    +0.262 C 
ATOM    167  O   UNK F  12      16.963  -5.559  20.677  0.00  0.00    -0.271 OA
ATOM    168  C   UNK F  12      18.260  -2.780  21.780  0.00  0.00    +0.031 C 
ATOM    169  C   UNK F  12      17.511  -3.281  23.005  0.00  0.00    +0.004 C 
ATOM    170  C   UNK F  12      17.315  -2.184  24.041  0.00  0.00    +0.021 C 
ATOM    171  C   UNK F  12      18.615  -1.832  24.751  0.00  0.00    +0.109 C 
ATOM    172  N   UNK F  12      18.905  -2.742  25.896  0.00  0.00    -0.131 N 
ATOM    173  N   UNK F  12      16.981  -3.929  19.134  0.00  0.00    -0.194 N 
ATOM    174  C   UNK F  12      15.863  -4.481  18.400  0.00  0.00    +0.203 C 
ATOM    175  C   UNK F  12      16.236  -5.826  17.787  0.00  0.00    +0.264 C 
ATOM    176  O   UNK F  12      15.446  -6.781  17.835  0.00  0.00    -0.271 OA
ATOM    177  C   UNK F  12      15.366  -3.493  17.333  0.00  0.00    +0.181 C 
ATOM    178  O   UNK F  12      14.816  -2.348  17.994  0.00  0.00    -0.221 OA
ATOM    179  C   UNK F  12      14.288  -4.124  16.453  0.00  0.00    +0.038 C 
ATOM    180  N   UNK F  12      17.443  -5.921  17.228  0.00  0.00    -0.196 N 
ATOM    181  C   UNK F  12      17.886  -7.206  16.714  0.00  0.00    +0.177 C 
ATOM    182  C   UNK F  12      17.892  -8.281  17.804  0.00  0.00    +0.262 C 
ATOM    183  O   UNK F  12      17.425  -9.393  17.584  0.00  0.00    -0.271 OA
ATOM    184  C   UNK F  12      19.260  -7.154  16.034  0.00  0.00    +0.057 C 
ATOM    185  C   UNK F  12      19.736  -8.515  15.629  0.00  0.00    -0.020 A 
ATOM    186  C   UNK F  12      19.182  -9.136  14.528  0.00  0.00    -0.004 A 
ATOM    187  C   UNK F  12      20.640  -9.221  16.411  0.00  0.00    -0.004 A 
ATOM    188  C   UNK F  12      19.556 -10.422  14.169  0.00  0.00    -0.000 A 
ATOM    189  C   UNK F  12      21.024 -10.513  16.056  0.00  0.00    -0.000 A 
ATOM    190  C   UNK F  12      20.484 -11.106  14.934  0.00  0.00    -0.000 A 
ATOM    191  N   UNK F  12      18.426  -7.949  18.975  0.00  0.00    -0.204 N 
ATOM    192  C   UNK F  12      18.503  -8.938  20.052  0.00  0.00    +0.116 C 
ATOM    193  C   UNK F  12      19.387  -8.434  21.198  0.00  0.00    +0.035 C 
ATOM    194  C   UNK F  12      20.855  -8.317  20.790  0.00  0.00    +0.116 C 
ATOM    195  C   UNK F  12      21.742  -7.812  21.913  0.00  0.00    +0.365 C 
ATOM    196  O   UNK F  12      21.222  -7.548  23.020  0.00  0.00    -0.246 OA
ATOM    197  O   UNK F  12      22.966  -7.690  21.690  0.00  0.00    -0.246 OA
ATOM    198  H   LEU F   1       0.379  -9.909  18.662  0.00  0.00    +0.000 HD
ATOM    199  H   LEU F   1      -0.211  -8.478  19.278  0.00  0.00    +0.000 HD
ATOM    200  H   LEU F   1       1.188  -8.482  18.373  0.00  0.00    +0.000 HD
ATOM    201  H   ASN F   3      -1.737  -9.934  14.238  0.00  0.00    +0.000 HD
ATOM    202  H   ASN F   3      -4.636  -6.685  10.274  0.00  0.00    +0.000 HD
ATOM    203  H   ASN F   3      -4.227  -6.460  11.914  0.00  0.00    +0.000 HD
ATOM    204  H   ASP F   4      -0.304  -7.674  13.831  0.00  0.00    +0.000 HD
ATOM    205  H   LEU F   5       2.103  -8.647  13.417  0.00  0.00    +0.000 HD
ATOM    206  H   LYS F   6       1.669  -9.791  11.005  0.00  0.00    +0.000 HD
ATOM    207  H   LYS F   6      -3.802 -11.376   6.917  0.00  0.00    +0.000 HD
ATOM    208  H   LYS F   6      -3.428 -12.993   6.773  0.00  0.00    +0.000 HD
ATOM    209  H   LYS F   6      -3.786 -12.097   5.415  0.00  0.00    +0.000 HD
ATOM    210  H   HIS F   7       1.284  -7.728   9.419  0.00  0.00    +0.000 HD
ATOM    211  H   VAL F   8       3.830  -6.549   9.487  0.00  0.00    +0.000 HD
ATOM    212  H   LYS F   9       5.106  -8.673   8.077  0.00  0.00    +0.000 HD
ATOM    213  H   LYS F   9       3.419 -15.172   5.454  0.00  0.00    +0.000 HD
ATOM    214  H   LYS F   9       4.694 -15.786   6.333  0.00  0.00    +0.000 HD
ATOM    215  H   LYS F   9       4.537 -16.163   4.718  0.00  0.00    +0.000 HD
ATOM    216  H   LYS F  10       3.963  -8.374   5.590  0.00  0.00    +0.000 HD
ATOM    217  H   LYS F  10      -2.383  -8.139   3.311  0.00  0.00    +0.000 HD
ATOM    218  H   LYS F  10      -2.737  -8.836   4.782  0.00  0.00    +0.000 HD
ATOM    219  H   LYS F  10      -2.167  -9.776   3.530  0.00  0.00    +0.000 HD
ATOM    220  H   LEU F  11       4.889  -5.983   4.758  0.00  0.00    +0.000 HD
ATOM    221  H   UNK F  12       7.454  -6.317   4.501  0.00  0.00    +0.000 HD
ATOM    222  H   UNK F  12       8.697  -6.717   6.243  0.00  0.00    +0.000 HD
ATOM    223  H   UNK F  12       8.348  -8.032   3.291  0.00  0.00    +0.000 HD
ATOM    224  H   UNK F  12       9.312 -11.322   3.735  0.00  0.00    +0.000 HD
ATOM    225  H   UNK F  12      12.061  -9.878   1.321  0.00  0.00    +0.000 HD
ATOM    226  H   UNK F  12      12.417  -7.227   1.375  0.00  0.00    +0.000 HD
ATOM    227  H   UNK F  12       9.712  -4.807   0.722  0.00  0.00    +0.000 HD
ATOM    228  H   UNK F  12      14.275  -3.649   2.353  0.00  0.00    +0.000 HD
ATOM    229  H   UNK F  12      17.968  -4.962   2.149  0.00  0.00    +0.000 HD
ATOM    230  H   UNK F  12      15.999  -5.284   5.912  0.00  0.00    +0.000 HD
ATOM    231  H   UNK F  12      15.868  -1.502   8.245  0.00  0.00    +0.000 HD
ATOM    232  H   UNK F  12      18.853  -2.431  11.351  0.00  0.00    +0.000 HD
ATOM    233  H   UNK F  12      17.670  -0.701  15.194  0.00  0.00    +0.000 HD
ATOM    234  H   UNK F  12      21.475  -1.803  17.564  0.00  0.00    +0.000 HD
ATOM    235  H   UNK F  12      24.487  -6.680  20.613  0.00  0.00    +0.000 HD
ATOM    236  H   UNK F  12      26.930  -4.233  20.290  0.00  0.00    +0.000 HD
ATOM    237  H   UNK F  12      28.177  -5.208  20.924  0.00  0.00    +0.000 HD
ATOM    238  H   UNK F  12      26.131  -7.981  21.455  0.00  0.00    +0.000 HD
ATOM    239  H   UNK F  12      27.716  -7.368  21.596  0.00  0.00    +0.000 HD
ATOM    240  H   UNK F  12      19.890  -2.515  19.753  0.00  0.00    +0.000 HD
ATOM    241  H   UNK F  12      18.161  -2.664  26.589  0.00  0.00    +0.000 HD
ATOM    242  H   UNK F  12      19.795  -2.481  26.321  0.00  0.00    +0.000 HD
ATOM    243  H   UNK F  12      18.958  -3.704  25.561  0.00  0.00    +0.000 HD
ATOM    244  H   UNK F  12      17.389  -3.085  18.832  0.00  0.00    +0.000 HD
ATOM    245  H   UNK F  12      14.072  -2.623  18.552  0.00  0.00    +0.000 HD
ATOM    246  H   UNK F  12      18.027  -5.131  17.164  0.00  0.00    +0.000 HD
ATOM    247  H   UNK F  12      18.770  -7.038  19.118  0.00  0.00    +0.000 HD
TER 
REMARK  Name = /mnt/c/Personal/tickdock/data/docking/counterdock_calibration/2W9H_protein.pdb
REMARK                            x       y       z     vdW  Elec       q    Type
REMARK                         _______ _______ _______ _____ _____    ______ ____
ATOM      1  C   UNL     9      17.098  -9.328  20.540  0.00  0.00    +0.321 C 
ATOM      2  O   UNL     9      16.880 -10.464  20.970  0.00  0.00    -0.263 OA
ATOM      3  N   UNL     9      16.130  -8.428  20.373  0.00  0.00    -0.190 N 
ATOM      4  N   UNL     9      16.184  -8.358  20.544  0.00  0.00    -0.128 N 
ATOM      5  C   UNL     9      14.720  -8.758  20.636  0.00  0.00    +0.182 C 
ATOM      6  C   UNL     9      14.839  -8.571  21.084  0.00  0.00    +0.152 C 
ATOM      7  C   UNL     9      14.114  -9.769  19.650  0.00  0.00    +0.323 A 
ATOM      8  C   UNL     9      14.130  -9.581  20.203  0.00  0.00    +0.250 A 
ATOM      9  O   UNL     9      13.427 -10.706  20.062  0.00  0.00    -0.265 OA
ATOM     10  O   UNL     9      13.313 -10.371  20.671  0.00  0.00    -0.283 OA
ATOM     11  C   UNL     9      13.862  -7.489  20.705  0.00  0.00    +0.204 C 
ATOM     12  C   UNL     9      14.049  -7.260  21.095  0.00  0.00    +0.216 C 
ATOM     13  O   UNL     9      12.678  -7.721  21.448  0.00  0.00    -0.219 OA
ATOM     14  O   UNL     9      14.516  -6.394  22.107  0.00  0.00    -0.218 OA
ATOM     15  N   UNL     9      14.360  -9.592  18.355  0.00  0.00    -0.154 NA
ATOM     16  N   UNL     9      14.466  -9.548  18.918  0.00  0.00    -0.073 N 
ATOM     17  C   UNL     9      13.854 -10.547  17.368  0.00  0.00    +0.018 C 
ATOM     18  C   UNL     9      13.874 -10.432  17.927  0.00  0.00    +0.119 C 
ATOM     19  C   UNL     9      13.717  -9.938  15.950  0.00  0.00    +0.019 C 
ATOM     20  C   UNL     9      13.907  -9.786  16.535  0.00  0.00    -0.025 C 
ATOM     21  C   UNL     9      15.083  -9.556  15.380  0.00  0.00    +0.004 C 
ATOM     22  C   UNL     9      13.003  -8.551  16.519  0.00  0.00    +0.000 C 
ATOM     23  C   UNL     9      12.785  -8.733  15.972  0.00  0.00    +0.004 C 
ATOM     24  C   UNL     9      13.526 -10.795  15.455  0.00  0.00    +0.004 C 
ATOM     25  C   UNL     9      15.068  -9.240  13.887  0.00  0.00    +0.000 C 
ATOM     26  C   UNL     9      13.102  -7.738  15.256  0.00  0.00    +0.000 C 
ATOM     27  H   UNL     9      16.363  -7.522  20.067  0.00  0.00    +0.000 HD
ATOM     28  H   UNL     9      16.793  -9.122  20.836  0.00  0.00    +0.000 HD
ATOM     29  H   UNL     9      16.555  -7.475  20.894  0.00  0.00    +0.000 HD
ATOM     30  H   UNL     9      16.141  -8.328  19.525  0.00  0.00    +0.000 HD
ATOM     31  H   UNL     9      12.910  -7.958  22.360  0.00  0.00    +0.000 HD
ATOM     32  H   UNL     9      15.481  -6.465  22.173  0.00  0.00    +0.000 HD
ATOM     33  H   UNL     9      15.313  -9.071  19.073  0.00  0.00    +0.000 HD
TER 
REMARK  Name = /mnt/c/Personal/tickdock/data/docking/counterdock_calibration/2W9H_protein.pdb
REMARK                            x       y       z     vdW  Elec       q    Type
REMARK                         _______ _______ _______ _____ _____    ______ ____
ATOM      1  C   UNL    10      14.675 -11.836  17.351  0.00  0.00    +0.235 C 
ATOM      2  C   UNL    10      14.574 -11.787  17.882  0.00  0.00    +0.275 C 
ATOM      3  O   UNL    10      14.199 -12.879  16.892  0.00  0.00    -0.215 OA
ATOM      4  O   UNL    10      13.924 -12.827  17.849  0.00  0.00    -0.201 OA
ATOM      5  N   UNL    10      15.902 -11.762  17.865  0.00  0.00    -0.094 N 
ATOM      6  H   UNL    10      16.245 -12.408  17.154  0.00  0.00    +0.000 HD
ATOM      7  H   UNL    10      16.259 -12.042  18.779  0.00  0.00    +0.000 HD
ATOM      8  H   UNL    10      16.222 -10.818  17.649  0.00  0.00    +0.000 HD
TER 
REMARK  Name = /mnt/c/Personal/tickdock/data/docking/counterdock_calibration/2W9H_protein.pdb
REMARK                            x       y       z     vdW  Elec       q    Type
REMARK                         _______ _______ _______ _____ _____    ______ ____
ATOM      1  C   UNK I   0      16.711 -12.965  18.075  0.00  0.00    +0.096 C 
ATOM      2  C   UNK I   0      17.415 -13.438  16.820  0.00  0.00    +0.242 C 
ATOM      3  O   UNK I   0      18.609 -13.690  16.844  0.00  0.00    -0.273 OA
ATOM      4  N   LYS I   1      16.676 -13.574  15.721  0.00  0.00    -0.198 N 
ATOM      5  CA  LYS I   1      17.261 -14.008  14.450  0.00  0.00    +0.171 C 
ATOM      6  C   LYS I   1      16.762 -13.124  13.312  0.00  0.00    +0.246 C 
ATOM      7  O   LYS I   1      15.704 -12.500  13.433  0.00  0.00    -0.273 OA
ATOM      8  CB  LYS I   1      16.929 -15.474  14.167  0.00  0.00    +0.031 C 
ATOM      9  CG  LYS I   1      15.465 -15.838  14.347  0.00  0.00    +0.004 C 
ATOM     10  CD  LYS I   1      15.280 -17.355  14.338  0.00  0.00    +0.021 C 
ATOM     11  CE  LYS I   1      14.071 -17.764  15.163  0.00  0.00    +0.109 C 
ATOM     12  NZ  LYS I   1      13.581 -19.127  14.802  0.00  0.00    -0.131 N 
ATOM     13  N   PRO I   2      17.521 -13.055  12.207  0.00  0.00    -0.272 N 
ATOM     14  CA  PRO I   2      17.044 -12.233  11.103  0.00  0.00    +0.154 C 
ATOM     15  C   PRO I   2      15.680 -12.707  10.612  0.00  0.00    +0.260 C 
ATOM     16  O   PRO I   2      15.374 -13.906  10.647  0.00  0.00    -0.272 OA
ATOM     17  CB  PRO I   2      18.107 -12.434  10.014  0.00  0.00    +0.031 C 
ATOM     18  CG  PRO I   2      18.872 -13.651  10.423  0.00  0.00    +0.024 C 
ATOM     19  CD  PRO I   2      18.821 -13.686  11.913  0.00  0.00    +0.094 C 
ATOM     20  N   LEU I   3      14.864 -11.763  10.164  0.00  0.00    -0.196 N 
ATOM     21  CA  LEU I   3      13.592 -12.106   9.554  0.00  0.00    +0.171 C 
ATOM     22  C   LEU I   3      13.855 -12.679   8.173  0.00  0.00    +0.246 C 
ATOM     23  O   LEU I   3      14.653 -12.131   7.412  0.00  0.00    -0.273 OA
ATOM     24  CB  LEU I   3      12.687 -10.877   9.483  0.00  0.00    +0.031 C 
ATOM     25  CG  LEU I   3      12.176 -10.416  10.853  0.00  0.00    +0.002 C 
ATOM     26  CD1 LEU I   3      11.385  -9.117  10.747  0.00  0.00    +0.000 C 
ATOM     27  CD2 LEU I   3      11.343 -11.497  11.539  0.00  0.00    +0.000 C 
ATOM     28  N   PRO I   4      13.208 -13.805   7.850  0.00  0.00    -0.272 N 
ATOM     29  CA  PRO I   4      13.552 -14.476   6.603  0.00  0.00    +0.154 C 
ATOM     30  C   PRO I   4      13.156 -13.709   5.334  0.00  0.00    +0.260 C 
ATOM     31  O   PRO I   4      12.240 -12.880   5.352  0.00  0.00    -0.272 OA
ATOM     32  CB  PRO I   4      12.804 -15.817   6.700  0.00  0.00    +0.031 C 
ATOM     33  CG  PRO I   4      11.680 -15.569   7.660  0.00  0.00    +0.024 C 
ATOM     34  CD  PRO I   4      12.157 -14.510   8.611  0.00  0.00    +0.094 C 
ATOM     35  N   ASN I   5      13.844 -14.007   4.234  0.00  0.00    -0.196 N 
ATOM     36  CA  ASN I   5      13.448 -13.534   2.908  0.00  0.00    +0.182 C 
ATOM     37  C   ASN I   5      13.608 -12.029   2.715  0.00  0.00    +0.262 C 
ATOM     38  O   ASN I   5      12.952 -11.428   1.863  0.00  0.00    -0.271 OA
ATOM     39  CB  ASN I   5      12.002 -13.942   2.580  0.00  0.00    +0.120 C 
ATOM     40  CG  ASN I   5      11.735 -15.408   2.826  0.00  0.00    +0.263 C 
ATOM     41  OD1 ASN I   5      10.766 -15.774   3.497  0.00  0.00    -0.272 OA
ATOM     42  ND2 ASN I   5      12.588 -16.257   2.275  0.00  0.00    -0.088 N 
ATOM     43  N   ARG I   6      14.481 -11.418   3.510  0.00  0.00    -0.196 N 
ATOM     44  CA  ARG I   6      14.840 -10.020   3.296  0.00  0.00    +0.173 C 
ATOM     45  C   ARG I   6      16.216  -9.751   3.866  0.00  0.00    +0.262 C 
ATOM     46  O   ARG I   6      16.739 -10.545   4.645  0.00  0.00    -0.271 OA
ATOM     47  CB  ARG I   6      13.807  -9.086   3.938  0.00  0.00    +0.033 C 
ATOM     48  CG  ARG I   6      13.796  -9.104   5.455  0.00  0.00    +0.029 C 
ATOM     49  CD  ARG I   6      12.379  -8.904   5.961  0.00  0.00    +0.129 C 
ATOM     50  NE  ARG I   6      11.695 -10.183   6.052  0.00  0.00    -0.234 N 
ATOM     51  CZ  ARG I   6      10.565 -10.390   6.717  0.00  0.00    +0.284 C 
ATOM     52  NH2 ARG I   6       9.948  -9.382   7.322  0.00  0.00    -0.104 N 
ATOM     53  NH1 ARG I   6      10.053 -11.612   6.770  0.00  0.00    -0.104 N 
ATOM     54  N   ARG I   7      16.801  -8.623   3.483  0.00  0.00    -0.196 N 
ATOM     55  CA  ARG I   7      18.107  -8.259   4.012  0.00  0.00    +0.173 C 
ATOM     56  C   ARG I   7      17.934  -7.658   5.401  0.00  0.00    +0.262 C 
ATOM     57  O   ARG I   7      17.136  -6.736   5.591  0.00  0.00    -0.271 OA
ATOM     58  CB  ARG I   7      18.810  -7.275   3.082  0.00  0.00    +0.033 C 
ATOM     59  CG  ARG I   7      20.250  -7.003   3.471  0.00  0.00    +0.029 C 
ATOM     60  CD  ARG I   7      20.868  -5.946   2.582  0.00  0.00    +0.129 C 
ATOM     61  NE  ARG I   7      22.310  -5.860   2.777  0.00  0.00    -0.234 N 
ATOM     62  CZ  ARG I   7      23.114  -5.069   2.072  0.00  0.00    +0.284 C 
ATOM     63  NH1 ARG I   7      22.618  -4.288   1.122  0.00  0.00    -0.104 N 
ATOM     64  NH2 ARG I   7      24.417  -5.057   2.322  0.00  0.00    -0.104 N 
ATOM     65  N   ASN I   8      18.668  -8.194   6.368  0.00  0.00    -0.196 N 
ATOM     66  CA  ASN I   8      18.667  -7.669   7.724  0.00  0.00    +0.182 C 
ATOM     67  C   ASN I   8      19.980  -6.968   8.007  0.00  0.00    +0.262 C 
ATOM     68  O   ASN I   8      21.043  -7.583   7.916  0.00  0.00    -0.271 OA
ATOM     69  CB  ASN I   8      18.474  -8.796   8.736  0.00  0.00    +0.120 C 
ATOM     70  CG  ASN I   8      17.079  -9.393   8.695  0.00  0.00    +0.263 C 
ATOM     71  OD1 ASN I   8      16.314  -9.251   9.646  0.00  0.00    -0.272 OA
ATOM     72  ND2 ASN I   8      16.743 -10.073   7.596  0.00  0.00    -0.088 N 
ATOM     73  N   VAL I   9      19.891  -5.687   8.348  0.00  0.00    -0.196 N 
ATOM     74  CA  VAL I   9      21.051  -4.850   8.614  0.00  0.00    +0.173 C 
ATOM     75  C   VAL I   9      20.962  -4.319  10.044  0.00  0.00    +0.262 C 
ATOM     76  O   VAL I   9      19.944  -3.729  10.436  0.00  0.00    -0.271 OA
ATOM     77  CB  VAL I   9      21.117  -3.657   7.634  0.00  0.00    +0.029 C 
ATOM     78  CG2 VAL I   9      22.312  -2.759   7.957  0.00  0.00    +0.002 C 
ATOM     79  CG1 VAL I   9      21.180  -4.149   6.180  0.00  0.00    +0.002 C 
ATOM     80  N   VAL I  10      22.017  -4.553  10.824  0.00  0.00    -0.196 N 
ATOM     81  CA  VAL I  10      22.106  -4.060  12.191  0.00  0.00    +0.173 C 
ATOM     82  C   VAL I  10      23.078  -2.906  12.294  0.00  0.00    +0.262 C 
ATOM     83  O   VAL I  10      24.219  -3.010  11.841  0.00  0.00    -0.271 OA
ATOM     84  CB  VAL I  10      22.527  -5.166  13.166  0.00  0.00    +0.029 C 
ATOM     85  CG2 VAL I  10      22.736  -4.582  14.562  0.00  0.00    +0.002 C 
ATOM     86  CG1 VAL I  10      21.464  -6.249  13.197  0.00  0.00    +0.002 C 
ATOM     87  N   LEU I  11      22.611  -1.813  12.885  0.00  0.00    -0.196 N 
ATOM     88  CA  LEU I  11      23.439  -0.632  13.120  0.00  0.00    +0.173 C 
ATOM     89  C   LEU I  11      23.883  -0.602  14.572  0.00  0.00    +0.262 C 
ATOM     90  O   LEU I  11      23.052  -0.553  15.483  0.00  0.00    -0.271 OA
ATOM     91  CB  LEU I  11      22.657   0.645  12.784  0.00  0.00    +0.031 C 
ATOM     92  CG  LEU I  11      23.319   1.958  13.206  0.00  0.00    +0.002 C 
ATOM     93  CD1 LEU I  11      24.587   2.191  12.377  0.00  0.00    +0.000 C 
ATOM     94  CD2 LEU I  11      22.347   3.107  13.033  0.00  0.00    +0.000 C 
ATOM     95  N   THR I  12      25.194  -0.633  14.791  0.00  0.00    -0.194 N 
ATOM     96  CA  THR I  12      25.747  -0.644  16.138  0.00  0.00    +0.203 C 
ATOM     97  C   THR I  12      27.129  -0.011  16.116  0.00  0.00    +0.264 C 
ATOM     98  O   THR I  12      27.852  -0.116  15.126  0.00  0.00    -0.271 OA
ATOM     99  CB  THR I  12      25.857  -2.088  16.714  0.00  0.00    +0.181 C 
ATOM    100  OG1 THR I  12      26.521  -2.049  17.984  0.00  0.00    -0.221 OA
ATOM    101  CG2 THR I  12      26.649  -3.006  15.780  0.00  0.00    +0.038 C 
ATOM    102  N   SER I  13      27.496   0.630  17.218  0.00  0.00    -0.194 N 
ATOM    103  CA  SER I  13      28.833   1.194  17.338  0.00  0.00    +0.205 C 
ATOM    104  C   SER I  13      29.906   0.154  17.655  0.00  0.00    +0.264 C 
ATOM    105  O   SER I  13      31.099   0.431  17.516  0.00  0.00    -0.271 OA
ATOM    106  CB  SER I  13      28.855   2.316  18.381  0.00  0.00    +0.213 C 
ATOM    107  OG  SER I  13      28.449   1.839  19.652  0.00  0.00    -0.218 OA
ATOM    108  N   ASP I  14      29.482  -1.033  18.091  0.00  0.00    -0.196 N 
ATOM    109  CA  ASP I  14      30.400  -2.109  18.468  0.00  0.00    +0.184 C 
ATOM    110  C   ASP I  14      30.998  -2.767  17.222  0.00  0.00    +0.262 C 
ATOM    111  O   ASP I  14      30.312  -3.491  16.502  0.00  0.00    -0.271 OA
ATOM    112  CB  ASP I  14      29.646  -3.152  19.313  0.00  0.00    +0.145 C 
ATOM    113  CG  ASP I  14      30.540  -4.289  19.793  0.00  0.00    +0.367 C 
ATOM    114  OD1 ASP I  14      31.757  -4.260  19.526  0.00  0.00    -0.246 OA
ATOM    115  OD2 ASP I  14      30.022  -5.228  20.443  0.00  0.00    -0.246 OA
ATOM    116  N   THR I  15      32.282  -2.512  16.967  0.00  0.00    -0.194 N 
ATOM    117  CA  THR I  15      32.942  -3.061  15.783  0.00  0.00    +0.203 C 
ATOM    118  C   THR I  15      33.231  -4.556  15.923  0.00  0.00    +0.264 C 
ATOM    119  O   THR I  15      33.654  -5.206  14.965  0.00  0.00    -0.271 OA
ATOM    120  CB  THR I  15      34.250  -2.302  15.436  0.00  0.00    +0.181 C 
ATOM    121  OG1 THR I  15      35.141  -2.333  16.558  0.00  0.00    -0.221 OA
ATOM    122  CG2 THR I  15      33.948  -0.861  15.067  0.00  0.00    +0.038 C 
ATOM    123  N   SER I  16      32.979  -5.094  17.114  0.00  0.00    -0.194 N 
ATOM    124  CA  SER I  16      33.211  -6.513  17.394  0.00  0.00    +0.205 C 
ATOM    125  C   SER I  16      31.948  -7.353  17.202  0.00  0.00    +0.264 C 
ATOM    126  O   SER I  16      31.943  -8.549  17.493  0.00  0.00    -0.271 OA
ATOM    127  CB  SER I  16      33.773  -6.704  18.809  0.00  0.00    +0.213 C 
ATOM    128  OG  SER I  16      32.758  -6.621  19.801  0.00  0.00    -0.218 OA
ATOM    129  N   PHE I  17      30.886  -6.727  16.701  0.00  0.00    -0.196 N 
ATOM    130  CA  PHE I  17      29.589  -7.389  16.579  0.00  0.00    +0.177 C 
ATOM    131  C   PHE I  17      29.423  -8.035  15.205  0.00  0.00    +0.262 C 
ATOM    132  O   PHE I  17      29.572  -7.372  14.185  0.00  0.00    -0.271 OA
ATOM    133  CB  PHE I  17      28.457  -6.385  16.833  0.00  0.00    +0.057 C 
ATOM    134  CG  PHE I  17      27.086  -6.995  16.774  0.00  0.00    -0.020 A 
ATOM    135  CD2 PHE I  17      26.558  -7.645  17.879  0.00  0.00    -0.004 A 
ATOM    136  CD1 PHE I  17      26.330  -6.924  15.616  0.00  0.00    -0.004 A 
ATOM    137  CE2 PHE I  17      25.295  -8.220  17.828  0.00  0.00    -0.000 A 
ATOM    138  CE1 PHE I  17      25.062  -7.499  15.559  0.00  0.00    -0.000 A 
ATOM    139  CZ  PHE I  17      24.549  -8.139  16.669  0.00  0.00    -0.000 A 
ATOM    140  N   ASN I  18      29.121  -9.333  15.180  0.00  0.00    -0.196 N 
ATOM    141  CA  ASN I  18      28.869 -10.030  13.922  0.00  0.00    +0.182 C 
ATOM    142  C   ASN I  18      27.903 -11.196  14.099  0.00  0.00    +0.262 C 
ATOM    143  O   ASN I  18      27.959 -11.897  15.105  0.00  0.00    -0.271 OA
ATOM    144  CB  ASN I  18      30.187 -10.500  13.291  0.00  0.00    +0.120 C 
ATOM    145  CG  ASN I  18      30.054 -11.824  12.562  0.00  0.00    +0.263 C 
ATOM    146  OD1 ASN I  18      30.118 -12.892  13.174  0.00  0.00    -0.272 OA
ATOM    147  ND2 ASN I  18      29.883 -11.762  11.244  0.00  0.00    -0.088 N 
ATOM    148  N   VAL I  19      27.020 -11.390  13.121  0.00  0.00    -0.196 N 
ATOM    149  CA  VAL I  19      26.008 -12.451  13.178  0.00  0.00    +0.173 C 
ATOM    150  C   VAL I  19      25.770 -13.006  11.780  0.00  0.00    +0.262 C 
ATOM    151  O   VAL I  19      25.510 -12.253  10.840  0.00  0.00    -0.271 OA
ATOM    152  CB  VAL I  19      24.659 -11.924  13.745  0.00  0.00    +0.029 C 
ATOM    153  CG1 VAL I  19      23.582 -13.002  13.667  0.00  0.00    +0.002 C 
ATOM    154  CG2 VAL I  19      24.832 -11.441  15.177  0.00  0.00    +0.002 C 
ATOM    155  N   GLU I  20      25.862 -14.326  11.639  0.00  0.00    -0.196 N 
ATOM    156  CA  GLU I  20      25.599 -14.957  10.356  0.00  0.00    +0.173 C 
ATOM    157  C   GLU I  20      24.205 -14.586   9.856  0.00  0.00    +0.262 C 
ATOM    158  O   GLU I  20      23.228 -14.658  10.605  0.00  0.00    -0.271 OA
ATOM    159  CB  GLU I  20      25.763 -16.479  10.455  0.00  0.00    +0.043 C 
ATOM    160  CG  GLU I  20      25.311 -17.241   9.215  0.00  0.00    +0.116 C 
ATOM    161  CD  GLU I  20      26.347 -17.228   8.106  0.00  0.00    +0.365 C 
ATOM    162  OE2 GLU I  20      27.479 -16.752   8.346  0.00  0.00    -0.246 OA
ATOM    163  OE1 GLU I  20      26.030 -17.696   6.992  0.00  0.00    -0.246 OA
ATOM    164  N   GLY I  21      24.122 -14.179   8.592  0.00  0.00    -0.194 N 
ATOM    165  CA  GLY I  21      22.845 -13.831   7.974  0.00  0.00    +0.201 C 
ATOM    166  C   GLY I  21      22.431 -12.390   8.206  0.00  0.00    +0.264 C 
ATOM    167  O   GLY I  21      21.346 -11.976   7.799  0.00  0.00    -0.271 OA
ATOM    168  N   VAL I  22      23.297 -11.625   8.865  0.00  0.00    -0.196 N 
ATOM    169  CA  VAL I  22      23.040 -10.210   9.118  0.00  0.00    +0.173 C 
ATOM    170  C   VAL I  22      24.205  -9.374   8.591  0.00  0.00    +0.262 C 
ATOM    171  O   VAL I  22      25.365  -9.740   8.768  0.00  0.00    -0.271 OA
ATOM    172  CB  VAL I  22      22.870  -9.928  10.622  0.00  0.00    +0.029 C 
ATOM    173  CG1 VAL I  22      22.740  -8.436  10.867  0.00  0.00    +0.002 C 
ATOM    174  CG2 VAL I  22      21.662 -10.672  11.183  0.00  0.00    +0.002 C 
ATOM    175  N   ASP I  23      23.894  -8.265   7.932  0.00  0.00    -0.196 N 
ATOM    176  CA  ASP I  23      24.911  -7.277   7.593  0.00  0.00    +0.184 C 
ATOM    177  C   ASP I  23      25.003  -6.238   8.702  0.00  0.00    +0.262 C 
ATOM    178  O   ASP I  23      23.985  -5.764   9.194  0.00  0.00    -0.271 OA
ATOM    179  CB  ASP I  23      24.589  -6.607   6.258  0.00  0.00    +0.145 C 
ATOM    180  CG  ASP I  23      24.686  -7.568   5.086  0.00  0.00    +0.367 C 
ATOM    181  OD2 ASP I  23      25.548  -8.472   5.124  0.00  0.00    -0.246 OA
ATOM    182  OD1 ASP I  23      23.908  -7.418   4.122  0.00  0.00    -0.246 OA
ATOM    183  N   VAL I  24      26.220  -5.889   9.100  0.00  0.00    -0.196 N 
ATOM    184  CA  VAL I  24      26.418  -4.932  10.174  0.00  0.00    +0.173 C 
ATOM    185  C   VAL I  24      26.977  -3.628   9.626  0.00  0.00    +0.262 C 
ATOM    186  O   VAL I  24      27.923  -3.628   8.824  0.00  0.00    -0.271 OA
ATOM    187  CB  VAL I  24      27.347  -5.491  11.286  0.00  0.00    +0.029 C 
ATOM    188  CG2 VAL I  24      27.525  -4.464  12.409  0.00  0.00    +0.002 C 
ATOM    189  CG1 VAL I  24      26.783  -6.792  11.845  0.00  0.00    +0.002 C 
ATOM    190  N   ILE I  25      26.395  -2.515  10.057  0.00  0.00    -0.196 N 
ATOM    191  CA  ILE I  25      26.965  -1.198   9.774  0.00  0.00    +0.173 C 
ATOM    192  C   ILE I  25      27.205  -0.429  11.069  0.00  0.00    +0.262 C 
ATOM    193  O   ILE I  25      26.643  -0.755  12.120  0.00  0.00    -0.271 OA
ATOM    194  CB  ILE I  25      26.053  -0.374   8.841  0.00  0.00    +0.029 C 
ATOM    195  CG1 ILE I  25      24.647  -0.246   9.442  0.00  0.00    +0.002 C 
ATOM    196  CG2 ILE I  25      25.993  -1.006   7.462  0.00  0.00    +0.002 C 
ATOM    197  CD1 ILE I  25      23.741   0.713   8.699  0.00  0.00    +0.000 C 
ATOM    198  N   HIS I  26      28.043   0.599  10.994  0.00  0.00    -0.196 N 
ATOM    199  CA  HIS I  26      28.452   1.317  12.193  0.00  0.00    +0.179 C 
ATOM    200  C   HIS I  26      28.091   2.799  12.200  0.00  0.00    +0.262 C 
ATOM    201  O   HIS I  26      28.249   3.470  13.217  0.00  0.00    -0.271 OA
ATOM    202  CB  HIS I  26      29.943   1.109  12.448  0.00  0.00    +0.079 C 
ATOM    203  CG  HIS I  26      30.336  -0.333  12.458  0.00  0.00    +0.082 A 
ATOM    204  ND1 HIS I  26      29.970  -1.195  13.471  0.00  0.00    -0.227 N 
ATOM    205  CD2 HIS I  26      31.027  -1.076  11.562  0.00  0.00    +0.115 A 
ATOM    206  CE1 HIS I  26      30.442  -2.400  13.209  0.00  0.00    +0.199 A 
ATOM    207  NE2 HIS I  26      31.087  -2.356  12.058  0.00  0.00    -0.221 NA
ATOM    208  N   UNK I  27      27.590   3.299  11.074  0.00  0.00    -0.194 N 
ATOM    209  C   UNK I  27      27.192   4.695  10.978  0.00  0.00    +0.205 C 
ATOM    210  C   UNK I  27      25.859   4.875  10.275  0.00  0.00    +0.264 C 
ATOM    211  O   UNK I  27      25.511   4.110   9.376  0.00  0.00    -0.271 OA
ATOM    212  C   UNK I  27      28.261   5.516  10.259  0.00  0.00    +0.213 C 
ATOM    213  O   UNK I  27      27.774   6.815   9.971  0.00  0.00    -0.218 OA
ATOM    214  N   UNK I  27      25.127   5.906  10.686  0.00  0.00    -0.196 N 
ATOM    215  C   UNK I  27      23.917   6.325   9.990  0.00  0.00    +0.173 C 
ATOM    216  C   UNK I  27      24.175   6.561   8.505  0.00  0.00    +0.262 C 
ATOM    217  O   UNK I  27      23.360   6.213   7.660  0.00  0.00    -0.271 OA
ATOM    218  C   UNK I  27      23.324   7.607  10.623  0.00  0.00    +0.029 C 
ATOM    219  C   UNK I  27      22.746   7.300  12.006  0.00  0.00    +0.002 C 
ATOM    220  C   UNK I  27      22.248   8.201   9.723  0.00  0.00    +0.002 C 
ATOM    221  C   UNK I  27      21.360   6.695  11.973  0.00  0.00    +0.000 C 
ATOM    222  N   UNK I  27      25.318   7.155   8.183  0.00  0.00    -0.196 N 
ATOM    223  C   UNK I  27      25.661   7.424   6.794  0.00  0.00    +0.173 C 
ATOM    224  C   UNK I  27      25.670   6.174   5.919  0.00  0.00    +0.262 C 
ATOM    225  O   UNK I  27      25.375   6.246   4.725  0.00  0.00    -0.271 OA
ATOM    226  C   UNK I  27      27.013   8.135   6.706  0.00  0.00    +0.043 C 
ATOM    227  C   UNK I  27      26.992   9.561   7.230  0.00  0.00    +0.116 C 
ATOM    228  C   UNK I  27      28.245   9.922   8.007  0.00  0.00    +0.365 C 
ATOM    229  O   UNK I  27      29.331   9.401   7.672  0.00  0.00    -0.246 OA
ATOM    230  O   UNK I  27      28.140  10.728   8.957  0.00  0.00    -0.246 OA
ATOM    231  N   UNK I  27      26.006   5.031   6.512  0.00  0.00    -0.196 N 
ATOM    232  C   UNK I  27      26.008   3.761   5.790  0.00  0.00    +0.184 C 
ATOM    233  C   UNK I  27      24.615   3.407   5.253  0.00  0.00    +0.262 C 
ATOM    234  O   UNK I  27      24.490   2.712   4.251  0.00  0.00    -0.271 OA
ATOM    235  C   UNK I  27      26.516   2.625   6.687  0.00  0.00    +0.145 C 
ATOM    236  C   UNK I  27      27.969   2.787   7.088  0.00  0.00    +0.367 C 
ATOM    237  O   UNK I  27      28.763   3.339   6.290  0.00  0.00    -0.246 OA
ATOM    238  O   UNK I  27      28.321   2.334   8.197  0.00  0.00    -0.246 OA
ATOM    239  N   UNK I  27      23.567   3.881   5.922  0.00  0.00    -0.196 N 
ATOM    240  C   UNK I  27      22.200   3.569   5.496  0.00  0.00    +0.173 C 
ATOM    241  C   UNK I  27      21.915   4.062   4.083  0.00  0.00    +0.262 C 
ATOM    242  O   UNK I  27      21.248   3.387   3.297  0.00  0.00    -0.271 OA
ATOM    243  C   UNK I  27      21.157   4.152   6.466  0.00  0.00    +0.029 C 
ATOM    244  C   UNK I  27      21.281   3.475   7.830  0.00  0.00    +0.002 C 
ATOM    245  C   UNK I  27      19.730   3.964   5.915  0.00  0.00    +0.002 C 
ATOM    246  C   UNK I  27      20.443   4.116   8.916  0.00  0.00    +0.000 C 
ATOM    247  N   UNK I  27      22.429   5.243   3.760  0.00  0.00    -0.196 N 
ATOM    248  C   UNK I  27      22.066   5.895   2.512  0.00  0.00    +0.177 C 
ATOM    249  C   UNK I  27      22.658   5.184   1.303  0.00  0.00    +0.262 C 
ATOM    250  O   UNK I  27      22.214   5.404   0.173  0.00  0.00    -0.271 OA
ATOM    251  C   UNK I  27      22.485   7.366   2.534  0.00  0.00    +0.057 C 
ATOM    252  C   UNK I  27      21.792   8.153   3.617  0.00  0.00    -0.020 A 
ATOM    253  C   UNK I  27      20.418   8.381   3.568  0.00  0.00    -0.001 A 
ATOM    254  C   UNK I  27      22.501   8.650   4.702  0.00  0.00    -0.001 A 
ATOM    255  C   UNK I  27      19.779   9.089   4.566  0.00  0.00    +0.042 A 
ATOM    256  C   UNK I  27      21.869   9.361   5.705  0.00  0.00    +0.042 A 
ATOM    257  C   UNK I  27      20.509   9.574   5.630  0.00  0.00    +0.196 A 
ATOM    258  O   UNK I  27      19.877  10.277   6.622  0.00  0.00    -0.287 OA
ATOM    259  N   UNK I  27      23.651   4.333   1.547  0.00  0.00    -0.196 N 
ATOM    260  C   UNK I  27      24.287   3.559   0.483  0.00  0.00    +0.173 C 
ATOM    261  C   UNK I  27      23.669   2.181   0.235  0.00  0.00    +0.262 C 
ATOM    262  O   UNK I  27      24.057   1.486  -0.704  0.00  0.00    -0.271 OA
ATOM    263  C   UNK I  27      25.788   3.416   0.742  0.00  0.00    +0.041 C 
ATOM    264  C   UNK I  27      26.506   4.732   1.026  0.00  0.00    +0.091 C 
ATOM    265  C   UNK I  27      26.288   5.777  -0.056  0.00  0.00    +0.261 C 
ATOM    266  O   UNK I  27      26.084   5.448  -1.224  0.00  0.00    -0.272 OA
ATOM    267  N   UNK I  27      26.335   7.048   0.332  0.00  0.00    -0.088 N 
ATOM    268  N   UNK I  27      22.715   1.777   1.073  0.00  0.00    -0.196 N 
ATOM    269  C   UNK I  27      22.026   0.506   0.855  0.00  0.00    +0.171 C 
ATOM    270  C   UNK I  27      21.073   0.584  -0.340  0.00  0.00    +0.246 C 
ATOM    271  O   UNK I  27      20.271   1.511  -0.440  0.00  0.00    -0.273 OA
ATOM    272  C   UNK I  27      21.247   0.090   2.108  0.00  0.00    +0.031 C 
ATOM    273  C   UNK I  27      22.043  -0.090   3.403  0.00  0.00    +0.002 C 
ATOM    274  C   UNK I  27      21.107  -0.154   4.604  0.00  0.00    +0.000 C 
ATOM    275  C   UNK I  27      22.925  -1.334   3.349  0.00  0.00    +0.000 C 
ATOM    276  N   UNK I  27      21.157  -0.399  -1.253  0.00  0.00    -0.272 N 
ATOM    277  C   UNK I  27      20.301  -0.419  -2.437  0.00  0.00    +0.154 C 
ATOM    278  C   UNK I  27      18.844  -0.768  -2.138  0.00  0.00    +0.260 C 
ATOM    279  O   UNK I  27      18.563  -1.543  -1.219  0.00  0.00    -0.272 OA
ATOM    280  C   UNK I  27      20.936  -1.507  -3.306  0.00  0.00    +0.031 C 
ATOM    281  C   UNK I  27      21.608  -2.412  -2.344  0.00  0.00    +0.024 C 
ATOM    282  C   UNK I  27      22.083  -1.546  -1.213  0.00  0.00    +0.094 C 
ATOM    283  N   UNK I  27      17.933  -0.194  -2.920  0.00  0.00    -0.194 N 
ATOM    284  C   UNK I  27      16.535  -0.607  -2.916  0.00  0.00    +0.201 C 
ATOM    285  C   UNK I  27      15.688   0.110  -1.883  0.00  0.00    +0.264 C 
ATOM    286  O   UNK I  27      16.021   1.208  -1.435  0.00  0.00    -0.271 OA
ATOM    287  N   UNK I  27      14.576  -0.517  -1.522  0.00  0.00    -0.196 N 
ATOM    288  C   UNK I  27      13.681   0.034  -0.519  0.00  0.00    +0.178 C 
ATOM    289  C   UNK I  27      14.171  -0.377   0.859  0.00  0.00    +0.262 C 
ATOM    290  O   UNK I  27      14.259  -1.568   1.166  0.00  0.00    -0.271 OA
ATOM    291  C   UNK I  27      12.258  -0.483  -0.734  0.00  0.00    +0.074 C 
ATOM    292  C   UNK I  27      11.207   0.316  -0.024  0.00  0.00    +0.065 C 
ATOM    293  N   UNK I  27       9.864   0.188  -0.305  0.00  0.00    -0.231 NA
ATOM    294  C   UNK I  27      11.300   1.255   0.949  0.00  0.00    +0.168 C 
ATOM    295  C   UNK I  27       9.173   1.013   0.464  0.00  0.00    +0.194 C 
ATOM    296  N   UNK I  27      10.021   1.671   1.237  0.00  0.00    -0.244 NA
ATOM    297  N   UNK I  27      14.473   0.620   1.684  0.00  0.00    -0.196 N 
ATOM    298  C   UNK I  27      15.041   0.382   2.995  0.00  0.00    +0.173 C 
ATOM    299  C   UNK I  27      14.039   0.843   4.046  0.00  0.00    +0.262 C 
ATOM    300  O   UNK I  27      13.526   1.966   3.981  0.00  0.00    -0.271 OA
ATOM    301  C   UNK I  27      16.368   1.154   3.164  0.00  0.00    +0.029 C 
ATOM    302  C   UNK I  27      16.891   1.013   4.576  0.00  0.00    +0.002 C 
ATOM    303  C   UNK I  27      17.407   0.640   2.162  0.00  0.00    +0.002 C 
ATOM    304  N   UNK I  27      13.758  -0.037   5.002  0.00  0.00    -0.196 N 
ATOM    305  C   UNK I  27      12.841   0.267   6.094  0.00  0.00    +0.177 C 
ATOM    306  C   UNK I  27      13.626   0.386   7.388  0.00  0.00    +0.262 C 
ATOM    307  O   UNK I  27      14.323  -0.553   7.780  0.00  0.00    -0.271 OA
ATOM    308  C   UNK I  27      11.819  -0.857   6.263  0.00  0.00    +0.057 C 
ATOM    309  C   UNK I  27      10.861  -0.995   5.111  0.00  0.00    -0.020 A 
ATOM    310  C   UNK I  27       9.662  -0.293   5.096  0.00  0.00    -0.004 A 
ATOM    311  C   UNK I  27      11.152  -1.839   4.054  0.00  0.00    -0.004 A 
ATOM    312  C   UNK I  27       8.767  -0.432   4.039  0.00  0.00    -0.000 A 
ATOM    313  C   UNK I  27      10.269  -1.980   2.988  0.00  0.00    -0.000 A 
ATOM    314  C   UNK I  27       9.075  -1.273   2.978  0.00  0.00    -0.000 A 
ATOM    315  N   UNK I  27      13.503   1.541   8.037  0.00  0.00    -0.196 N 
ATOM    316  C   UNK I  27      14.049   1.754   9.373  0.00  0.00    +0.173 C 
ATOM    317  C   UNK I  27      13.105   1.088  10.376  0.00  0.00    +0.262 C 
ATOM    318  O   UNK I  27      11.937   1.471  10.491  0.00  0.00    -0.271 OA
ATOM    319  C   UNK I  27      14.155   3.269   9.692  0.00  0.00    +0.029 C 
ATOM    320  C   UNK I  27      15.038   3.984   8.660  0.00  0.00    +0.002 C 
ATOM    321  C   UNK I  27      14.692   3.497  11.097  0.00  0.00    +0.002 C 
ATOM    322  C   UNK I  27      16.443   3.423   8.542  0.00  0.00    +0.000 C 
ATOM    323  N   UNK I  27      13.626   0.100  11.094  0.00  0.00    -0.196 N 
ATOM    324  C   UNK I  27      12.812  -0.861  11.851  0.00  0.00    +0.177 C 
ATOM    325  C   UNK I  27      12.868  -0.609  13.361  0.00  0.00    +0.262 C 
ATOM    326  O   UNK I  27      12.163  -1.254  14.122  0.00  0.00    -0.271 OA
ATOM    327  C   UNK I  27      13.322  -2.267  11.538  0.00  0.00    +0.057 C 
ATOM    328  C   UNK I  27      12.335  -3.381  11.792  0.00  0.00    -0.020 A 
ATOM    329  C   UNK I  27      11.057  -3.359  11.242  0.00  0.00    -0.004 A 
ATOM    330  C   UNK I  27      12.725  -4.493  12.527  0.00  0.00    -0.004 A 
ATOM    331  C   UNK I  27      10.177  -4.421  11.453  0.00  0.00    -0.000 A 
ATOM    332  C   UNK I  27      11.851  -5.552  12.740  0.00  0.00    -0.000 A 
ATOM    333  C   UNK I  27      10.584  -5.519  12.193  0.00  0.00    -0.000 A 
ATOM    334  N   UNK I  27      13.691   0.345  13.786  0.00  0.00    -0.194 N 
ATOM    335  C   UNK I  27      13.786   0.705  15.201  0.00  0.00    +0.201 C 
ATOM    336  C   UNK I  27      15.145   0.345  15.742  0.00  0.00    +0.264 C 
ATOM    337  O   UNK I  27      15.960  -0.183  15.003  0.00  0.00    -0.271 OA
ATOM    338  N   UNK I  27      15.404   0.626  17.021  0.00  0.00    -0.194 N 
ATOM    339  C   UNK I  27      14.396   1.066  17.976  0.00  0.00    +0.201 C 
ATOM    340  C   UNK I  27      14.360   2.572  18.161  0.00  0.00    +0.263 C 
ATOM    341  O   UNK I  27      14.596   3.325  17.222  0.00  0.00    -0.271 OA
ATOM    342  N   UNK I  27      14.060   2.999  19.387  0.00  0.00    -0.204 N 
ATOM    343  C   UNK I  27      13.862   4.409  19.692  0.00  0.00    +0.116 C 
ATOM    344  C   UNK I  27      13.671   4.608  21.196  0.00  0.00    +0.033 C 
ATOM    345  C   UNK I  27      13.607   6.064  21.601  0.00  0.00    +0.090 C 
ATOM    346  C   UNK I  27      13.211   6.252  23.051  0.00  0.00    +0.261 C 
ATOM    347  O   UNK I  27      12.724   5.335  23.706  0.00  0.00    -0.272 OA
ATOM    348  N   UNK I  27      13.402   7.463  23.555  0.00  0.00    -0.088 N 
ATOM    349  H   LYS I   1      15.712 -13.378  15.764  0.00  0.00    +0.000 HD
ATOM    350  H   LYS I   1      13.295 -19.137  13.823  0.00  0.00    +0.000 HD
ATOM    351  H   LYS I   1      12.785 -19.369  15.392  0.00  0.00    +0.000 HD
ATOM    352  H   LYS I   1      14.329 -19.806  14.945  0.00  0.00    +0.000 HD
ATOM    353  H   LEU I   3      15.124 -10.817  10.246  0.00  0.00    +0.000 HD
ATOM    354  H   ASN I   5      14.650 -14.567   4.316  0.00  0.00    +0.000 HD
ATOM    355  H   ASN I   5      13.347 -15.919   1.747  0.00  0.00    +0.000 HD
ATOM    356  H   ASN I   5      12.463 -17.226   2.393  0.00  0.00    +0.000 HD
ATOM    357  H   ARG I   6      14.891 -11.916   4.254  0.00  0.00    +0.000 HD
ATOM    358  H   ARG I   6      12.099 -10.951   5.587  0.00  0.00    +0.000 HD
ATOM    359  H   ARG I   6      10.330  -8.475   7.281  0.00  0.00    +0.000 HD
ATOM    360  H   ARG I   6       9.109  -9.541   7.811  0.00  0.00    +0.000 HD
ATOM    361  H   ARG I   6      10.512 -12.358   6.321  0.00  0.00    +0.000 HD
ATOM    362  H   ARG I   6       9.214 -11.773   7.259  0.00  0.00    +0.000 HD
ATOM    363  H   ARG I   7      16.350  -8.031   2.839  0.00  0.00    +0.000 HD
ATOM    364  H   ARG I   7      22.715  -6.424   3.475  0.00  0.00    +0.000 HD
ATOM    365  H   ARG I   7      23.217  -3.704   0.602  0.00  0.00    +0.000 HD
ATOM    366  H   ARG I   7      21.651  -4.292   0.936  0.00  0.00    +0.000 HD
ATOM    367  H   ARG I   7      25.013  -4.472   1.801  0.00  0.00    +0.000 HD
ATOM    368  H   ARG I   7      24.788  -5.633   3.029  0.00  0.00    +0.000 HD
ATOM    369  H   ASN I   8      19.232  -8.974   6.160  0.00  0.00    +0.000 HD
ATOM    370  H   ASN I   8      17.387 -10.163   6.857  0.00  0.00    +0.000 HD
ATOM    371  H   ASN I   8      15.852 -10.485   7.525  0.00  0.00    +0.000 HD
ATOM    372  H   VAL I   9      18.996  -5.284   8.424  0.00  0.00    +0.000 HD
ATOM    373  H   VAL I  10      22.766  -5.080  10.462  0.00  0.00    +0.000 HD
ATOM    374  H   LEU I  11      21.671  -1.797  13.176  0.00  0.00    +0.000 HD
ATOM    375  H   THR I  12      25.808  -0.649  14.021  0.00  0.00    +0.000 HD
ATOM    376  H   THR I  12      27.418  -1.697  17.869  0.00  0.00    +0.000 HD
ATOM    377  H   SER I  13      26.858   0.725  17.962  0.00  0.00    +0.000 HD
ATOM    378  H   SER I  13      27.542   1.499  19.595  0.00  0.00    +0.000 HD
ATOM    379  H   ASP I  14      28.513  -1.192  18.162  0.00  0.00    +0.000 HD
ATOM    380  H   THR I  15      32.795  -1.944  17.587  0.00  0.00    +0.000 HD
ATOM    381  H   THR I  15      34.722  -1.897  17.316  0.00  0.00    +0.000 HD
ATOM    382  H   SER I  16      32.625  -4.519  17.831  0.00  0.00    +0.000 HD
ATOM    383  H   SER I  16      32.348  -5.742  19.771  0.00  0.00    +0.000 HD
ATOM    384  H   PHE I  17      30.977  -5.793  16.405  0.00  0.00    +0.000 HD
ATOM    385  H   ASN I  18      29.067  -9.832  16.027  0.00  0.00    +0.000 HD
ATOM    386  H   ASN I  18      29.791 -12.590  10.720  0.00  0.00    +0.000 HD
ATOM    387  H   ASN I  18      29.849 -10.888  10.793  0.00  0.00    +0.000 HD
ATOM    388  H   VAL I  19      27.047 -10.801  12.332  0.00  0.00    +0.000 HD
ATOM    389  H   GLU I  20      26.111 -14.882  12.413  0.00  0.00    +0.000 HD
ATOM    390  H   GLY I  21      24.946 -14.110   8.057  0.00  0.00    +0.000 HD
ATOM    391  H   VAL I  22      24.135 -12.024   9.192  0.00  0.00    +0.000 HD
ATOM    392  H   ASP I  23      22.959  -8.106   7.667  0.00  0.00    +0.000 HD
ATOM    393  H   VAL I  24      27.005  -6.287   8.658  0.00  0.00    +0.000 HD
ATOM    394  H   ILE I  25      25.562  -2.578  10.578  0.00  0.00    +0.000 HD
ATOM    395  H   HIS I  26      28.392   0.879  10.117  0.00  0.00    +0.000 HD
ATOM    396  H   HIS I  26      29.440  -0.950  14.264  0.00  0.00    +0.000 HD
ATOM    397  H   UNK I  27      27.486   2.713  10.290  0.00  0.00    +0.000 HD
ATOM    398  H   UNK I  27      27.542   7.264  10.799  0.00  0.00    +0.000 HD
ATOM    399  H   UNK I  27      25.412   6.403  11.487  0.00  0.00    +0.000 HD
ATOM    400  H   UNK I  27      25.944   7.418   8.896  0.00  0.00    +0.000 HD
ATOM    401  H   UNK I  27      26.260   5.042   7.463  0.00  0.00    +0.000 HD
ATOM    402  H   UNK I  27      23.712   4.449   6.713  0.00  0.00    +0.000 HD
ATOM    403  H   UNK I  27      23.063   5.682   4.372  0.00  0.00    +0.000 HD
ATOM    404  H   UNK I  27      18.953  10.425   6.576  0.00  0.00    +0.000 HD
ATOM    405  H   UNK I  27      23.967   4.221   2.473  0.00  0.00    +0.000 HD
ATOM    406  H   UNK I  27      26.201   7.769  -0.325  0.00  0.00    +0.000 HD
ATOM    407  H   UNK I  27      26.504   7.268   1.277  0.00  0.00    +0.000 HD
ATOM    408  H   UNK I  27      22.472   2.338   1.844  0.00  0.00    +0.000 HD
ATOM    409  H   UNK I  27      18.212   0.534  -3.521  0.00  0.00    +0.000 HD
ATOM    410  H   UNK I  27      14.352  -1.377  -1.944  0.00  0.00    +0.000 HD
ATOM    411  H   UNK I  27      14.306   1.547   1.396  0.00  0.00    +0.000 HD
ATOM    412  H   UNK I  27      14.184  -0.924   4.972  0.00  0.00    +0.000 HD
ATOM    413  H   UNK I  27      13.025   2.281   7.598  0.00  0.00    +0.000 HD
ATOM    414  H   UNK I  27      14.606   0.007  11.120  0.00  0.00    +0.000 HD
ATOM    415  H   UNK I  27      14.251   0.822  13.131  0.00  0.00    +0.000 HD
ATOM    416  H   UNK I  27      16.331   0.530  17.338  0.00  0.00    +0.000 HD
ATOM    417  H   UNK I  27      13.969   2.339  20.111  0.00  0.00    +0.000 HD
ATOM    418  H   UNK I  27      13.796   8.172  22.997  0.00  0.00    +0.000 HD
ATOM    419  H   UNK I  27      13.150   7.653  24.488  0.00  0.00    +0.000 HD
TER 
REMARK  Name = /mnt/c/Personal/tickdock/data/docking/counterdock_calibration/2W9H_protein.pdb
REMARK                            x       y       z     vdW  Elec       q    Type
REMARK                         _______ _______ _______ _____ _____    ______ ____
ATOM      1  C   UNL    11      14.952   5.336  19.152  0.00  0.00    +0.324 C 
ATOM      2  O   UNL    11      14.653   6.319  18.471  0.00  0.00    -0.263 OA
ATOM      3  N   UNL    11      16.216   5.059  19.446  0.00  0.00    -0.175 NA
ATOM      4  C   UNL    11      17.337   5.846  19.063  0.00  0.00    +0.067 C 
ATOM      5  C   UNL    11      18.602   5.772  19.711  0.00  0.00    +0.098 C 
ATOM      6  C   UNL    11      18.675   5.197  19.470  0.00  0.00    +0.274 C 
ATOM      7  O   UNL    11      19.044   4.448  19.401  0.00  0.00    -0.190 OA
ATOM      8  O   UNL    11      18.655   4.902  20.872  0.00  0.00    -0.326 OA
ATOM      9  C   UNL    11      18.492   5.951  21.226  0.00  0.00    +0.177 C 
ATOM     10  C   UNL    11      19.839   6.136  19.166  0.00  0.00    +0.011 C 
ATOM     11  H   UNL    11      19.342   4.153  20.276  0.00  0.00    +0.000 HD
TER 
REMARK  Name = /mnt/c/Personal/tickdock/data/docking/counterdock_calibration/2W9H_protein.pdb
REMARK                            x       y       z     vdW  Elec       q    Type
REMARK                         _______ _______ _______ _____ _____    ______ ____
ATOM      1  N   UNL    12      16.204   5.014  19.468  0.00  0.00    +0.000 N 
ATOM      2  H   UNL    12      17.224   5.014  19.468  0.00  0.00    +0.000 HD
ATOM      3  H   UNL    12      15.864   4.420  18.712  0.00  0.00    +0.000 HD
ATOM      4  H   UNL    12      15.864   5.966  19.332  0.00  0.00    +0.000 HD
ATOM      5  H   UNL    12      15.864   4.656  20.361  0.00  0.00    +0.000 HD
TER 
REMARK  Name = /mnt/c/Personal/tickdock/data/docking/counterdock_calibration/2W9H_protein.pdb
REMARK                            x       y       z     vdW  Elec       q    Type
REMARK                         _______ _______ _______ _____ _____    ______ ____
ATOM      1  C   UNL    13      17.249   6.016  19.035  0.00  0.00    +0.000 C 
TER 
REMARK  Name = /mnt/c/Personal/tickdock/data/docking/counterdock_calibration/2W9H_protein.pdb
REMARK                            x       y       z     vdW  Elec       q    Type
REMARK                         _______ _______ _______ _____ _____    ______ ____
ATOM      1  C   UNL    13      17.413   6.079  17.509  0.00  0.00    +0.279 C 
ATOM      2  O   UNL    13      17.377   7.186  17.064  0.00  0.00    -0.279 OA
TER 
REMARK  Name = /mnt/c/Personal/tickdock/data/docking/counterdock_calibration/2W9H_protein.pdb
REMARK                            x       y       z     vdW  Elec       q    Type
REMARK                         _______ _______ _______ _____ _____    ______ ____
ATOM      1  C   UNL    14      17.324   6.056  17.551  0.00  0.00    +0.000 C 
TER 
REMARK  Name = /mnt/c/Personal/tickdock/data/docking/counterdock_calibration/2W9H_protein.pdb
REMARK                            x       y       z     vdW  Elec       q    Type
REMARK                         _______ _______ _______ _____ _____    ______ ____
ATOM      1  O   HOH    15      17.680   7.146  16.959  0.00  0.00    +0.000 OA
ATOM      2  H   HOH    15      18.650   7.146  16.959  0.00  0.00    +0.000 HD
ATOM      3  H   HOH    15      17.357   6.780  16.121  0.00  0.00    +0.000 HD
TER 
REMARK  Name = /mnt/c/Personal/tickdock/data/docking/counterdock_calibration/2W9H_protein.pdb
REMARK                            x       y       z     vdW  Elec       q    Type
REMARK                         _______ _______ _______ _____ _____    ______ ____
ATOM      1  N   UNL    16      17.231   4.957  16.815  0.00  0.00    -0.123 N 
ATOM      2  C   UNL    16      17.310   5.003  15.357  0.00  0.00    +0.169 C 
ATOM      3  C   UNL    16      16.107   5.761  14.776  0.00  0.00    +0.259 C 
ATOM      4  O   UNL    16      16.254   6.544  13.834  0.00  0.00    -0.272 OA
ATOM      5  C   UNL    16      17.426   3.600  14.773  0.00  0.00    +0.028 C 
ATOM      6  C   UNL    16      17.631   3.532  13.265  0.00  0.00    +0.002 C 
ATOM      7  C   UNL    16      18.832   4.363  12.802  0.00  0.00    +0.000 C 
ATOM      8  C   UNL    16      17.754   2.077  12.856  0.00  0.00    +0.000 C 
ATOM      9  N   UNL    16      14.918   5.552  15.347  0.00  0.00    -0.196 N 
ATOM     10  C   UNL    16      13.764   6.349  14.940  0.00  0.00    +0.177 C 
ATOM     11  C   UNL    16      14.005   7.842  15.158  0.00  0.00    +0.262 C 
ATOM     12  O   UNL    16      13.661   8.657  14.305  0.00  0.00    -0.271 OA
ATOM     13  C   UNL    16      12.494   5.932  15.680  0.00  0.00    +0.057 C 
ATOM     14  C   UNL    16      11.948   4.585  15.282  0.00  0.00    -0.020 A 
ATOM     15  C   UNL    16      11.910   4.176  13.953  0.00  0.00    -0.004 A 
ATOM     16  C   UNL    16      11.432   3.740  16.253  0.00  0.00    -0.004 A 
ATOM     17  C   UNL    16      11.378   2.931  13.600  0.00  0.00    -0.000 A 
ATOM     18  C   UNL    16      10.901   2.498  15.915  0.00  0.00    -0.000 A 
ATOM     19  C   UNL    16      10.856   2.102  14.582  0.00  0.00    -0.000 A 
ATOM     20  N   UNL    16      14.562   8.201  16.313  0.00  0.00    -0.196 N 
ATOM     21  C   UNL    16      14.838   9.605  16.615  0.00  0.00    +0.173 C 
ATOM     22  C   UNL    16      15.812  10.211  15.606  0.00  0.00    +0.262 C 
ATOM     23  O   UNL    16      15.674  11.373  15.215  0.00  0.00    -0.271 OA
ATOM     24  C   UNL    16      15.375   9.751  18.046  0.00  0.00    +0.043 C 
ATOM     25  C   UNL    16      14.279   9.582  19.088  0.00  0.00    +0.116 C 
ATOM     26  C   UNL    16      14.772   9.267  20.497  0.00  0.00    +0.365 C 
ATOM     27  O   UNL    16      15.946   8.875  20.677  0.00  0.00    -0.246 OA
ATOM     28  O   UNL    16      13.950   9.392  21.433  0.00  0.00    -0.246 OA
ATOM     29  N   UNL    16      16.791   9.416  15.184  0.00  0.00    -0.196 N 
ATOM     30  C   UNL    16      17.811   9.871  14.235  0.00  0.00    +0.173 C 
ATOM     31  C   UNL    16      17.291   9.966  12.805  0.00  0.00    +0.262 C 
ATOM     32  O   UNL    16      17.818  10.735  11.994  0.00  0.00    -0.271 OA
ATOM     33  C   UNL    16      19.031   8.944  14.296  0.00  0.00    +0.043 C 
ATOM     34  C   UNL    16      19.823   9.075  15.599  0.00  0.00    +0.116 C 
ATOM     35  C   UNL    16      20.702   7.873  15.934  0.00  0.00    +0.365 C 
ATOM     36  O   UNL    16      20.619   6.823  15.261  0.00  0.00    -0.246 OA
ATOM     37  O   UNL    16      21.491   7.981  16.898  0.00  0.00    -0.246 OA
ATOM     38  N   UNL    16      16.260   9.184  12.487  0.00  0.00    -0.196 N 
ATOM     39  C   UNL    16      15.834   9.036  11.095  0.00  0.00    +0.174 C 
ATOM     40  C   UNL    16      14.515   9.721  10.739  0.00  0.00    +0.261 C 
ATOM     41  O   UNL    16      14.216   9.909   9.552  0.00  0.00    -0.271 OA
ATOM     42  C   UNL    16      15.799   7.561  10.678  0.00  0.00    +0.043 C 
ATOM     43  C   UNL    16      17.167   6.882  10.719  0.00  0.00    +0.060 C 
ATOM     44  S   UNL    16      18.419   7.693   9.697  0.00  0.00    -0.139 S 
ATOM     45  C   UNL    16      17.709   7.418   8.084  0.00  0.00    +0.069 C 
ATOM     46  N   UNL    16      13.710  10.080  11.738  0.00  0.00    -0.204 N 
ATOM     47  C   UNL    16      12.376  10.586  11.421  0.00  0.00    +0.115 C 
ATOM     48  C   UNL    16      11.471  10.752  12.671  0.00  0.00    +0.022 C 
ATOM     49  C   UNL    16      10.025  11.074  12.250  0.00  0.00    +0.002 C 
ATOM     50  C   UNL    16      12.052  11.790  13.620  0.00  0.00    +0.002 C 
ATOM     51  C   UNL    16       8.986  10.916  13.347  0.00  0.00    +0.000 C 
ATOM     52  H   UNL    16      18.036   4.451  17.183  0.00  0.00    +0.000 HD
ATOM     53  H   UNL    16      16.373   4.481  17.094  0.00  0.00    +0.000 HD
ATOM     54  H   UNL    16      17.228   5.907  17.185  0.00  0.00    +0.000 HD
ATOM     55  H   UNL    16      14.820   4.861  16.042  0.00  0.00    +0.000 HD
ATOM     56  H   UNL    16      14.792   7.509  16.975  0.00  0.00    +0.000 HD
ATOM     57  H   UNL    16      16.832   8.492  15.520  0.00  0.00    +0.000 HD
ATOM     58  H   UNL    16      15.779   8.700  13.197  0.00  0.00    +0.000 HD
ATOM     59  H   UNL    16      14.008  10.006  12.673  0.00  0.00    +0.000 HD
TER 
REMARK  Name = /mnt/c/Personal/tickdock/data/docking/counterdock_calibration/2W9H_protein.pdb
REMARK                            x       y       z     vdW  Elec       q    Type
REMARK                         _______ _______ _______ _____ _____    ______ ____
ATOM      1  C   HOH    15      12.386  11.830  10.528  0.00  0.00    +0.341 C 
ATOM      2  O   HOH    15      11.486  12.010   9.702  0.00  0.00    -0.262 OA
ATOM      3  N   HOH    15      13.401  12.675  10.679  0.00  0.00    -0.080 N 
ATOM      4  H   HOH    15      13.456  13.483  10.119  0.00  0.00    +0.000 HD
ATOM      5  H   HOH    15      14.098  12.493  11.350  0.00  0.00    +0.000 HD
TER 
REMARK  Name = /mnt/c/Personal/tickdock/data/docking/counterdock_calibration/2W9H_protein.pdb
REMARK                            x       y       z     vdW  Elec       q    Type
REMARK                         _______ _______ _______ _____ _____    ______ ____
ATOM      1  N   UNL    16      13.401  12.680  10.685  0.00  0.00    -0.130 N 
ATOM      2  C   UNL    16      13.500  13.882   9.857  0.00  0.00    +0.130 C 
ATOM      3  H   UNL    16      14.299  12.502  11.134  0.00  0.00    +0.000 HD
ATOM      4  H   UNL    16      13.149  11.884  10.099  0.00  0.00    +0.000 HD
ATOM      5  H   UNL    16      12.685  12.817  11.399  0.00  0.00    +0.000 HD
TER 
REMARK  Name = /mnt/c/Personal/tickdock/data/docking/counterdock_calibration/2W9H_protein.pdb
REMARK                            x       y       z     vdW  Elec       q    Type
REMARK                         _______ _______ _______ _____ _____    ______ ____
ATOM      1  C   UNL    17      13.516  13.892   9.860  0.00  0.00    +0.012 C 
ATOM      2  C   UNL    17      14.135  15.018  10.656  0.00  0.00    +0.114 C 
ATOM      3  C   UNL    17      13.651  15.586  11.758  0.00  0.00    +0.365 C 
ATOM      4  O   UNL    17      12.423  15.414  11.893  0.00  0.00    -0.246 OA
ATOM      5  O   UNL    17      14.327  16.267  12.563  0.00  0.00    -0.246 OA
TER 
REMARK  Name = /mnt/c/Personal/tickdock/data/docking/counterdock_calibration/2W9H_protein.pdb
REMARK                            x       y       z     vdW  Elec       q    Type
REMARK                         _______ _______ _______ _____ _____    ______ ____
ATOM      1  C   UNL    18      14.092  13.603   8.471  0.00  0.00    +0.217 C 
ATOM      2  C   UNL    18      14.287  13.639   8.571  0.00  0.00    +0.217 C 
ATOM      3  O   UNL    18      14.108  14.479   7.601  0.00  0.00    -0.217 OA
ATOM      4  O   UNL    18      14.646  14.586   7.867  0.00  0.00    -0.217 OA
TER 
REMARK  Name = /mnt/c/Personal/tickdock/data/docking/counterdock_calibration/2W9H_protein.pdb
REMARK                            x       y       z     vdW  Elec       q    Type
REMARK                         _______ _______ _______ _____ _____    ______ ____
ATOM      1  C   UNL    19      14.362  14.958  10.567  0.00  0.00    +0.126 C 
ATOM      2  C   UNL    19      15.452  14.614  11.287  0.00  0.00    +0.365 C 
ATOM      3  O   UNL    19      16.276  13.983  10.593  0.00  0.00    -0.246 OA
ATOM      4  O   UNL    19      15.665  14.921  12.479  0.00  0.00    -0.246 OA
TER 
REMARK  Name = /mnt/c/Personal/tickdock/data/docking/counterdock_calibration/2W9H_protein.pdb
REMARK                            x       y       z     vdW  Elec       q    Type
REMARK                         _______ _______ _______ _____ _____    ______ ____
ATOM      1  N   UNL    20      14.548  12.369   8.266  0.00  0.00    -0.123 N 
ATOM      2  C   UNL    20      15.316  12.003   7.078  0.00  0.00    +0.169 C 
ATOM      3  C   UNL    20      14.564  11.099   6.112  0.00  0.00    +0.259 C 
ATOM      4  O   UNL    20      14.891  11.050   4.929  0.00  0.00    -0.272 OA
ATOM      5  C   UNL    20      16.633  11.327   7.474  0.00  0.00    +0.028 C 
ATOM      6  C   UNL    20      17.541  12.203   8.332  0.00  0.00    +0.004 C 
ATOM      7  C   UNL    20      18.859  11.521   8.640  0.00  0.00    +0.021 C 
ATOM      8  C   UNL    20      19.741  12.420   9.495  0.00  0.00    +0.109 C 
ATOM      9  N   UNL    20      18.969  13.100  10.576  0.00  0.00    -0.131 N 
ATOM     10  N   UNL    20      13.581  10.357   6.613  0.00  0.00    -0.197 N 
ATOM     11  C   UNL    20      12.936   9.350   5.769  0.00  0.00    +0.173 C 
ATOM     12  C   UNL    20      11.933  10.005   4.827  0.00  0.00    +0.262 C 
ATOM     13  O   UNL    20      11.462  11.125   5.067  0.00  0.00    -0.271 OA
ATOM     14  C   UNL    20      12.233   8.231   6.590  0.00  0.00    +0.029 C 
ATOM     15  C   UNL    20      13.246   7.449   7.396  0.00  0.00    +0.002 C 
ATOM     16  C   UNL    20      11.126   8.802   7.476  0.00  0.00    +0.002 C 
ATOM     17  N   UNL    20      11.595   9.286   3.765  0.00  0.00    -0.196 N 
ATOM     18  C   UNL    20      10.604   9.748   2.808  0.00  0.00    +0.184 C 
ATOM     19  C   UNL    20       9.177   9.590   3.337  0.00  0.00    +0.262 C 
ATOM     20  O   UNL    20       8.316  10.444   3.131  0.00  0.00    -0.271 OA
ATOM     21  C   UNL    20      10.773   8.972   1.501  0.00  0.00    +0.145 C 
ATOM     22  C   UNL    20      12.151   9.165   0.885  0.00  0.00    +0.367 C 
ATOM     23  O   UNL    20      12.586  10.332   0.777  0.00  0.00    -0.246 OA
ATOM     24  O   UNL    20      12.799   8.160   0.510  0.00  0.00    -0.246 OA
ATOM     25  N   UNL    20       8.919   8.486   4.021  0.00  0.00    -0.196 N 
ATOM     26  C   UNL    20       7.557   8.168   4.436  0.00  0.00    +0.184 C 
ATOM     27  C   UNL    20       7.572   7.231   5.637  0.00  0.00    +0.262 C 
ATOM     28  O   UNL    20       8.635   6.788   6.062  0.00  0.00    -0.271 OA
ATOM     29  C   UNL    20       6.726   7.599   3.275  0.00  0.00    +0.145 C 
ATOM     30  C   UNL    20       7.295   6.311   2.700  0.00  0.00    +0.367 C 
ATOM     31  O   UNL    20       8.381   5.884   3.138  0.00  0.00    -0.246 OA
ATOM     32  O   UNL    20       6.642   5.717   1.810  0.00  0.00    -0.246 OA
ATOM     33  N   UNL    20       6.395   6.957   6.194  0.00  0.00    -0.196 N 
ATOM     34  C   UNL    20       6.278   6.118   7.387  0.00  0.00    +0.174 C 
ATOM     35  C   UNL    20       5.102   5.182   7.243  0.00  0.00    +0.262 C 
ATOM     36  O   UNL    20       4.004   5.589   6.853  0.00  0.00    -0.271 OA
ATOM     37  C   UNL    20       6.101   6.969   8.653  0.00  0.00    +0.043 C 
ATOM     38  C   UNL    20       7.174   8.061   8.830  0.00  0.00    +0.060 C 
ATOM     39  S   UNL    20       7.317   8.689  10.528  0.00  0.00    -0.139 S 
ATOM     40  C   UNL    20       5.838   9.676  10.689  0.00  0.00    +0.069 C 
ATOM     41  N   UNL    20       5.348   3.922   7.562  0.00  0.00    -0.196 N 
ATOM     42  C   UNL    20       4.294   2.935   7.685  0.00  0.00    +0.177 C 
ATOM     43  C   UNL    20       4.113   2.658   9.160  0.00  0.00    +0.262 C 
ATOM     44  O   UNL    20       4.964   2.010   9.791  0.00  0.00    -0.271 OA
ATOM     45  C   UNL    20       4.697   1.658   6.943  0.00  0.00    +0.057 C 
ATOM     46  C   UNL    20       4.760   1.838   5.444  0.00  0.00    -0.020 A 
ATOM     47  C   UNL    20       5.943   2.229   4.821  0.00  0.00    -0.001 A 
ATOM     48  C   UNL    20       3.635   1.627   4.650  0.00  0.00    -0.001 A 
ATOM     49  C   UNL    20       6.009   2.385   3.430  0.00  0.00    +0.042 A 
ATOM     50  C   UNL    20       3.690   1.791   3.265  0.00  0.00    +0.042 A 
ATOM     51  C   UNL    20       4.875   2.167   2.664  0.00  0.00    +0.196 A 
ATOM     52  O   UNL    20       4.933   2.324   1.293  0.00  0.00    -0.287 OA
ATOM     53  N   UNL    20       3.022   3.181   9.710  0.00  0.00    -0.196 N 
ATOM     54  C   UNL    20       2.795   3.124  11.142  0.00  0.00    +0.173 C 
ATOM     55  C   UNL    20       1.596   2.234  11.431  0.00  0.00    +0.262 C 
ATOM     56  O   UNL    20       0.531   2.399  10.842  0.00  0.00    -0.271 OA
ATOM     57  C   UNL    20       2.549   4.540  11.717  0.00  0.00    +0.029 C 
ATOM     58  C   UNL    20       3.766   5.443  11.427  0.00  0.00    +0.002 C 
ATOM     59  C   UNL    20       2.197   4.456  13.209  0.00  0.00    +0.002 C 
ATOM     60  C   UNL    20       3.799   6.761  12.199  0.00  0.00    +0.000 C 
ATOM     61  N   UNL    20       1.778   1.289  12.339  0.00  0.00    -0.194 N 
ATOM     62  C   UNL    20       0.642   0.611  12.943  0.00  0.00    +0.203 C 
ATOM     63  C   UNL    20       0.346   1.316  14.254  0.00  0.00    +0.264 C 
ATOM     64  O   UNL    20       1.152   1.245  15.187  0.00  0.00    -0.271 OA
ATOM     65  C   UNL    20       0.942  -0.869  13.213  0.00  0.00    +0.181 C 
ATOM     66  O   UNL    20       1.376  -1.491  12.001  0.00  0.00    -0.221 OA
ATOM     67  C   UNL    20      -0.298  -1.585  13.755  0.00  0.00    +0.038 C 
ATOM     68  N   UNL    20      -0.779   2.030  14.307  0.00  0.00    -0.196 N 
ATOM     69  C   UNL    20      -1.213   2.640  15.562  0.00  0.00    +0.173 C 
ATOM     70  C   UNL    20      -1.974   1.598  16.363  0.00  0.00    +0.262 C 
ATOM     71  O   UNL    20      -3.039   1.120  15.947  0.00  0.00    -0.271 OA
ATOM     72  C   UNL    20      -2.085   3.891  15.335  0.00  0.00    +0.029 C 
ATOM     73  C   UNL    20      -2.496   4.514  16.681  0.00  0.00    +0.002 C 
ATOM     74  C   UNL    20      -1.321   4.907  14.493  0.00  0.00    +0.002 C 
ATOM     75  N   UNL    20      -1.409   1.227  17.504  0.00  0.00    -0.196 N 
ATOM     76  C   UNL    20      -2.087   0.358  18.435  0.00  0.00    +0.173 C 
ATOM     77  C   UNL    20      -3.020   1.249  19.234  0.00  0.00    +0.262 C 
ATOM     78  O   UNL    20      -2.571   2.154  19.943  0.00  0.00    -0.271 OA
ATOM     79  C   UNL    20      -1.076  -0.311  19.388  0.00  0.00    +0.029 C 
ATOM     80  C   UNL    20      -0.019  -1.120  18.615  0.00  0.00    +0.002 C 
ATOM     81  C   UNL    20      -1.798  -1.070  20.482  0.00  0.00    +0.002 C 
ATOM     82  C   UNL    20      -0.544  -2.197  17.734  0.00  0.00    +0.000 C 
ATOM     83  N   UNL    20      -4.318   1.027  19.070  0.00  0.00    -0.196 N 
ATOM     84  C   UNL    20      -5.321   1.942  19.603  0.00  0.00    +0.173 C 
ATOM     85  C   UNL    20      -5.630   1.604  21.054  0.00  0.00    +0.262 C 
ATOM     86  O   UNL    20      -6.773   1.275  21.422  0.00  0.00    -0.271 OA
ATOM     87  C   UNL    20      -6.579   1.912  18.732  0.00  0.00    +0.043 C 
ATOM     88  C   UNL    20      -6.308   2.170  17.252  0.00  0.00    +0.116 C 
ATOM     89  C   UNL    20      -6.235   3.637  16.898  0.00  0.00    +0.365 C 
ATOM     90  O   UNL    20      -6.367   4.473  17.813  0.00  0.00    -0.246 OA
ATOM     91  O   UNL    20      -6.054   3.958  15.701  0.00  0.00    -0.246 OA
ATOM     92  N   UNL    20      -4.593   1.698  21.877  0.00  0.00    -0.194 N 
ATOM     93  C   UNL    20      -4.703   1.450  23.300  0.00  0.00    +0.201 C 
ATOM     94  C   UNL    20      -3.561   2.142  24.013  0.00  0.00    +0.264 C 
ATOM     95  O   UNL    20      -2.689   2.737  23.365  0.00  0.00    -0.271 OA
ATOM     96  N   UNL    20      -3.559   2.051  25.337  0.00  0.00    -0.196 N 
ATOM     97  C   UNL    20      -2.498   2.645  26.151  0.00  0.00    +0.173 C 
ATOM     98  C   UNL    20      -1.893   1.556  27.022  0.00  0.00    +0.262 C 
ATOM     99  O   UNL    20      -2.518   1.115  27.994  0.00  0.00    -0.271 OA
ATOM    100  C   UNL    20      -3.048   3.774  27.036  0.00  0.00    +0.031 C 
ATOM    101  C   UNL    20      -3.657   4.940  26.241  0.00  0.00    +0.004 C 
ATOM    102  C   UNL    20      -4.408   5.915  27.148  0.00  0.00    +0.021 C 
ATOM    103  C   UNL    20      -3.473   6.874  27.842  0.00  0.00    +0.109 C 
ATOM    104  N   UNL    20      -4.268   7.983  28.440  0.00  0.00    -0.131 N 
ATOM    105  N   UNL    20      -0.682   1.132  26.661  0.00  0.00    -0.196 N 
ATOM    106  C   UNL    20       0.022   0.038  27.330  0.00  0.00    +0.177 C 
ATOM    107  C   UNL    20       1.134   0.571  28.224  0.00  0.00    +0.262 C 
ATOM    108  O   UNL    20       1.564   1.723  28.080  0.00  0.00    -0.271 OA
ATOM    109  C   UNL    20       0.623  -0.913  26.285  0.00  0.00    +0.057 C 
ATOM    110  C   UNL    20      -0.399  -1.744  25.577  0.00  0.00    -0.020 A 
ATOM    111  C   UNL    20      -1.175  -1.201  24.559  0.00  0.00    -0.004 A 
ATOM    112  C   UNL    20      -0.631  -3.056  25.967  0.00  0.00    -0.004 A 
ATOM    113  C   UNL    20      -2.155  -1.963  23.930  0.00  0.00    -0.000 A 
ATOM    114  C   UNL    20      -1.598  -3.833  25.331  0.00  0.00    -0.000 A 
ATOM    115  C   UNL    20      -2.352  -3.292  24.308  0.00  0.00    -0.000 A 
ATOM    116  N   UNL    20       1.620  -0.284  29.121  0.00  0.00    -0.196 N 
ATOM    117  C   UNL    20       2.896  -0.052  29.787  0.00  0.00    +0.173 C 
ATOM    118  C   UNL    20       4.003   0.147  28.758  0.00  0.00    +0.262 C 
ATOM    119  O   UNL    20       4.062  -0.569  27.762  0.00  0.00    -0.271 OA
ATOM    120  C   UNL    20       3.259  -1.250  30.675  0.00  0.00    +0.033 C 
ATOM    121  C   UNL    20       2.390  -1.383  31.918  0.00  0.00    +0.029 C 
ATOM    122  C   UNL    20       3.181  -1.948  33.079  0.00  0.00    +0.129 C 
ATOM    123  N   UNL    20       4.192  -1.002  33.548  0.00  0.00    -0.234 N 
ATOM    124  C   UNL    20       4.844  -1.116  34.700  0.00  0.00    +0.284 C 
ATOM    125  N   UNL    20       4.595  -2.138  35.510  0.00  0.00    -0.104 N 
ATOM    126  N   UNL    20       5.748  -0.212  35.042  0.00  0.00    -0.104 N 
ATOM    127  N   UNL    20       4.878   1.125  28.987  0.00  0.00    -0.194 N 
ATOM    128  C   UNL    20       5.971   1.363  28.055  0.00  0.00    +0.201 C 
ATOM    129  C   UNL    20       7.183   1.984  28.708  0.00  0.00    +0.264 C 
ATOM    130  O   UNL    20       7.057   2.714  29.698  0.00  0.00    -0.271 OA
ATOM    131  N   UNL    20       8.356   1.706  28.139  0.00  0.00    -0.196 N 
ATOM    132  C   UNL    20       9.602   2.316  28.614  0.00  0.00    +0.184 C 
ATOM    133  C   UNL    20      10.502   2.724  27.457  0.00  0.00    +0.262 C 
ATOM    134  O   UNL    20      11.681   3.029  27.642  0.00  0.00    -0.271 OA
ATOM    135  C   UNL    20      10.337   1.385  29.588  0.00  0.00    +0.145 C 
ATOM    136  C   UNL    20      10.702   0.046  28.960  0.00  0.00    +0.367 C 
ATOM    137  O   UNL    20      10.678  -0.051  27.709  0.00  0.00    -0.246 OA
ATOM    138  O   UNL    20      11.029  -0.903  29.722  0.00  0.00    -0.246 OA
ATOM    139  N   UNL    20       9.924   2.751  26.262  0.00  0.00    -0.194 N 
ATOM    140  C   UNL    20      10.619   3.253  25.089  0.00  0.00    +0.203 C 
ATOM    141  C   UNL    20       9.557   3.770  24.115  0.00  0.00    +0.264 C 
ATOM    142  O   UNL    20       8.434   3.242  24.061  0.00  0.00    -0.271 OA
ATOM    143  C   UNL    20      11.554   2.188  24.466  0.00  0.00    +0.181 C 
ATOM    144  O   UNL    20      12.198   2.713  23.306  0.00  0.00    -0.221 OA
ATOM    145  C   UNL    20      10.806   0.938  24.093  0.00  0.00    +0.038 C 
ATOM    146  N   UNL    20       9.896   4.835  23.394  0.00  0.00    -0.196 N 
ATOM    147  C   UNL    20       8.892   5.692  22.757  0.00  0.00    +0.177 C 
ATOM    148  C   UNL    20       9.317   6.122  21.364  0.00  0.00    +0.262 C 
ATOM    149  O   UNL    20      10.487   6.438  21.127  0.00  0.00    -0.271 OA
ATOM    150  C   UNL    20       8.654   6.946  23.613  0.00  0.00    +0.057 C 
ATOM    151  C   UNL    20       8.204   6.634  24.993  0.00  0.00    -0.020 A 
ATOM    152  C   UNL    20       6.856   6.471  25.275  0.00  0.00    -0.004 A 
ATOM    153  C   UNL    20       9.127   6.450  26.012  0.00  0.00    -0.004 A 
ATOM    154  C   UNL    20       6.442   6.141  26.558  0.00  0.00    -0.000 A 
ATOM    155  C   UNL    20       8.716   6.121  27.301  0.00  0.00    -0.000 A 
ATOM    156  C   UNL    20       7.371   5.967  27.570  0.00  0.00    -0.000 A 
ATOM    157  N   UNL    20       8.353   6.136  20.451  0.00  0.00    -0.196 N 
ATOM    158  C   UNL    20       8.542   6.734  19.133  0.00  0.00    +0.176 C 
ATOM    159  C   UNL    20       8.530   8.263  19.292  0.00  0.00    +0.246 C 
ATOM    160  O   UNL    20       7.784   8.785  20.110  0.00  0.00    -0.273 OA
ATOM    161  C   UNL    20       7.393   6.306  18.212  0.00  0.00    +0.057 C 
ATOM    162  C   UNL    20       7.643   6.588  16.760  0.00  0.00    -0.020 A 
ATOM    163  C   UNL    20       8.576   5.846  16.053  0.00  0.00    -0.004 A 
ATOM    164  C   UNL    20       6.950   7.601  16.096  0.00  0.00    -0.004 A 
ATOM    165  C   UNL    20       8.815   6.094  14.713  0.00  0.00    -0.000 A 
ATOM    166  C   UNL    20       7.187   7.844  14.750  0.00  0.00    -0.000 A 
ATOM    167  C   UNL    20       8.119   7.093  14.063  0.00  0.00    -0.000 A 
ATOM    168  N   UNL    20       9.346   8.987  18.505  0.00  0.00    -0.272 N 
ATOM    169  C   UNL    20       9.341  10.447  18.642  0.00  0.00    +0.152 C 
ATOM    170  C   UNL    20       7.995  11.074  18.270  0.00  0.00    +0.244 C 
ATOM    171  O   UNL    20       7.267  10.544  17.428  0.00  0.00    -0.273 OA
ATOM    172  C   UNL    20      10.439  10.908  17.673  0.00  0.00    +0.031 C 
ATOM    173  C   UNL    20      10.735   9.761  16.803  0.00  0.00    +0.024 C 
ATOM    174  C   UNL    20      10.318   8.513  17.507  0.00  0.00    +0.094 C 
ATOM    175  N   UNL    20       7.650  12.199  18.912  0.00  0.00    -0.272 N 
ATOM    176  C   UNL    20       6.420  12.877  18.546  0.00  0.00    +0.154 C 
ATOM    177  C   UNL    20       6.477  13.389  17.118  0.00  0.00    +0.259 C 
ATOM    178  O   UNL    20       7.546  13.738  16.612  0.00  0.00    -0.272 OA
ATOM    179  C   UNL    20       6.324  14.032  19.545  0.00  0.00    +0.031 C 
ATOM    180  C   UNL    20       7.632  14.136  20.175  0.00  0.00    +0.024 C 
ATOM    181  C   UNL    20       8.380  12.872  19.995  0.00  0.00    +0.094 C 
ATOM    182  N   UNL    20       5.327  13.392  16.466  0.00  0.00    -0.204 N 
ATOM    183  C   UNL    20       5.227  13.906  15.111  0.00  0.00    +0.120 C 
ATOM    184  C   UNL    20       5.459  12.801  14.072  0.00  0.00    +0.050 C 
ATOM    185  C   UNL    20       4.511  11.625  14.177  0.00  0.00    -0.020 A 
ATOM    186  C   UNL    20       4.777  10.563  15.035  0.00  0.00    -0.001 A 
ATOM    187  C   UNL    20       3.358  11.567  13.398  0.00  0.00    -0.001 A 
ATOM    188  C   UNL    20       3.909   9.483  15.123  0.00  0.00    +0.042 A 
ATOM    189  C   UNL    20       2.490  10.504  13.483  0.00  0.00    +0.042 A 
ATOM    190  C   UNL    20       2.764   9.462  14.339  0.00  0.00    +0.196 A 
ATOM    191  O   UNL    20       1.878   8.409  14.401  0.00  0.00    -0.287 OA
ATOM    192  H   UNL    20      13.676  12.817   7.983  0.00  0.00    +0.000 HD
ATOM    193  H   UNL    20      15.092  13.015   8.837  0.00  0.00    +0.000 HD
ATOM    194  H   UNL    20      14.339  11.530   8.807  0.00  0.00    +0.000 HD
ATOM    195  H   UNL    20      18.250  13.692  10.160  0.00  0.00    +0.000 HD
ATOM    196  H   UNL    20      19.600  13.674  11.135  0.00  0.00    +0.000 HD
ATOM    197  H   UNL    20      18.529  12.399  11.172  0.00  0.00    +0.000 HD
ATOM    198  H   UNL    20      13.289  10.484   7.545  0.00  0.00    +0.000 HD
ATOM    199  H   UNL    20      12.028   8.414   3.621  0.00  0.00    +0.000 HD
ATOM    200  H   UNL    20       9.654   7.873   4.252  0.00  0.00    +0.000 HD
ATOM    201  H   UNL    20       5.578   7.330   5.791  0.00  0.00    +0.000 HD
ATOM    202  H   UNL    20       6.279   3.645   7.721  0.00  0.00    +0.000 HD
ATOM    203  H   UNL    20       4.168   2.177   0.772  0.00  0.00    +0.000 HD
ATOM    204  H   UNL    20       2.353   3.617   9.133  0.00  0.00    +0.000 HD
ATOM    205  H   UNL    20       2.692   1.042  12.609  0.00  0.00    +0.000 HD
ATOM    206  H   UNL    20       0.673  -1.427  11.335  0.00  0.00    +0.000 HD
ATOM    207  H   UNL    20      -1.322   2.147  13.494  0.00  0.00    +0.000 HD
ATOM    208  H   UNL    20      -0.505   1.552  17.721  0.00  0.00    +0.000 HD
ATOM    209  H   UNL    20      -4.611   0.226  18.577  0.00  0.00    +0.000 HD
ATOM    210  H   UNL    20      -3.715   1.946  21.506  0.00  0.00    +0.000 HD
ATOM    211  H   UNL    20      -4.292   1.570  25.784  0.00  0.00    +0.000 HD
ATOM    212  H   UNL    20      -4.779   8.470  27.704  0.00  0.00    +0.000 HD
ATOM    213  H   UNL    20      -3.641   8.637  28.909  0.00  0.00    +0.000 HD
ATOM    214  H   UNL    20      -4.929   7.601  29.117  0.00  0.00    +0.000 HD
ATOM    215  H   UNL    20      -0.238   1.579  25.904  0.00  0.00    +0.000 HD
ATOM    216  H   UNL    20       1.105  -1.094  29.340  0.00  0.00    +0.000 HD
ATOM    217  H   UNL    20       4.403  -0.231  32.973  0.00  0.00    +0.000 HD
ATOM    218  H   UNL    20       3.923  -2.813  35.259  0.00  0.00    +0.000 HD
ATOM    219  H   UNL    20       5.082  -2.221  36.361  0.00  0.00    +0.000 HD
ATOM    220  H   UNL    20       5.936   0.547  34.444  0.00  0.00    +0.000 HD
ATOM    221  H   UNL    20       6.233  -0.299  35.894  0.00  0.00    +0.000 HD
ATOM    222  H   UNL    20       4.785   1.689  29.789  0.00  0.00    +0.000 HD
ATOM    223  H   UNL    20       8.386   1.077  27.383  0.00  0.00    +0.000 HD
ATOM    224  H   UNL    20       9.001   2.422  26.168  0.00  0.00    +0.000 HD
ATOM    225  H   UNL    20      11.530   2.939  22.640  0.00  0.00    +0.000 HD
ATOM    226  H   UNL    20      10.850   5.054  23.285  0.00  0.00    +0.000 HD
ATOM    227  H   UNL    20       7.483   5.730  20.670  0.00  0.00    +0.000 HD
ATOM    228  H   UNL    20       4.521  13.038  16.908  0.00  0.00    +0.000 HD
ATOM    229  H   UNL    20       1.110   8.411  13.865  0.00  0.00    +0.000 HD
TER 
REMARK  Name = /mnt/c/Personal/tickdock/data/docking/counterdock_calibration/2W9H_protein.pdb
REMARK                            x       y       z     vdW  Elec       q    Type
REMARK                         _______ _______ _______ _____ _____    ______ ____
ATOM      1  C   UNL    17       3.871  14.547  14.948  0.00  0.00    +0.341 C 
ATOM      2  O   UNL    17       2.934  14.218  15.668  0.00  0.00    -0.262 OA
ATOM      3  N   UNL    17       3.761  15.455  13.991  0.00  0.00    -0.080 N 
ATOM      4  H   UNL    17       2.897  15.900  13.831  0.00  0.00    +0.000 HD
ATOM      5  H   UNL    17       4.543  15.685  13.439  0.00  0.00    +0.000 HD
TER 
REMARK  Name = /mnt/c/Personal/tickdock/data/docking/counterdock_calibration/2W9H_protein.pdb
REMARK                            x       y       z     vdW  Elec       q    Type
REMARK                         _______ _______ _______ _____ _____    ______ ____
ATOM      1  N   UNL    18       3.777  15.496  14.020  0.00  0.00    -0.130 N 
ATOM      2  C   UNL    18       2.525  16.196  13.829  0.00  0.00    +0.130 C 
ATOM      3  H   UNL    18       4.522  15.991  13.529  0.00  0.00    +0.000 HD
ATOM      4  H   UNL    18       3.697  14.549  13.650  0.00  0.00    +0.000 HD
ATOM      5  H   UNL    18       3.995  15.455  15.016  0.00  0.00    +0.000 HD
TER 
REMARK  Name = /mnt/c/Personal/tickdock/data/docking/counterdock_calibration/2W9H_protein.pdb
REMARK                            x       y       z     vdW  Elec       q    Type
REMARK                         _______ _______ _______ _____ _____    ______ ____
ATOM      1  C   UNL    21       2.526  16.216  13.799  0.00  0.00    +0.000 C 
TER 
REMARK  Name = /mnt/c/Personal/tickdock/data/docking/counterdock_calibration/2W9H_protein.pdb
REMARK                            x       y       z     vdW  Elec       q    Type
REMARK                         _______ _______ _______ _____ _____    ______ ____
ATOM      1  C   UNL    20       1.986  16.063  12.411  0.00  0.00    +0.279 C 
ATOM      2  O   UNL    20       2.750  15.954  11.453  0.00  0.00    -0.279 OA
TER 
REMARK  Name = /mnt/c/Personal/tickdock/data/docking/counterdock_calibration/2W9H_protein.pdb
REMARK                            x       y       z     vdW  Elec       q    Type
REMARK                         _______ _______ _______ _____ _____    ______ ____
ATOM      1  C   UNL    21       1.976  15.937  12.415  0.00  0.00    +0.279 C 
ATOM      2  O   UNL    21       2.718  15.639  11.483  0.00  0.00    -0.279 OA
TER 
REMARK  Name = /mnt/c/Personal/tickdock/data/docking/counterdock_calibration/2W9H_protein.pdb
REMARK                            x       y       z     vdW  Elec       q    Type
REMARK                         _______ _______ _______ _____ _____    ______ ____
ATOM      1  C   UNL    22       2.701  17.683  14.235  0.00  0.00    +0.000 C 
ATOM      2  C   UNL    22       3.524  18.101  15.167  0.00  0.00    +0.000 C 
TER 
REMARK  Name = /mnt/c/Personal/tickdock/data/docking/counterdock_calibration/2W9H_protein.pdb
REMARK                            x       y       z     vdW  Elec       q    Type
REMARK                         _______ _______ _______ _____ _____    ______ ____
ATOM      1  C   UNL    22       2.690  17.753  13.942  0.00  0.00    +0.299 C 
ATOM      2  O   UNL    22       1.567  18.439  13.808  0.00  0.00    -0.187 OA
ATOM      3  O   UNL    22       3.305  18.289  12.762  0.00  0.00    -0.321 OA
ATOM      4  C   UNL    22       3.971  18.278  13.640  0.00  0.00    +0.209 C 
ATOM      5  H   UNL    22       1.710  19.176  13.193  0.00  0.00    +0.000 HD
TER 
REMARK  Name = /mnt/c/Personal/tickdock/data/docking/counterdock_calibration/2W9H_protein.pdb
REMARK                            x       y       z     vdW  Elec       q    Type
REMARK                         _______ _______ _______ _____ _____    ______ ____
ATOM      1  N   UNL    23       0.664  16.058  12.279  0.00  0.00    -0.131 N 
ATOM      2  C   UNL    23       0.048  15.976  10.972  0.00  0.00    +0.114 C 
ATOM      3  C   UNL    23      -1.359  15.396  11.072  0.00  0.00    +0.047 C 
ATOM      4  C   UNL    23      -1.371  13.952  11.498  0.00  0.00    -0.021 A 
ATOM      5  C   UNL    23      -1.056  12.950  10.592  0.00  0.00    -0.004 A 
ATOM      6  C   UNL    23      -1.659  13.597  12.807  0.00  0.00    -0.004 A 
ATOM      7  C   UNL    23      -1.049  11.618  10.978  0.00  0.00    -0.000 A 
ATOM      8  C   UNL    23      -1.657  12.265  13.199  0.00  0.00    -0.000 A 
ATOM      9  C   UNL    23      -1.353  11.276  12.282  0.00  0.00    -0.000 A 
ATOM     10  H   UNL    23       1.602  16.448  12.189  0.00  0.00    +0.000 HD
ATOM     11  H   UNL    23       0.721  15.125  12.687  0.00  0.00    +0.000 HD
ATOM     12  H   UNL    23       0.103  16.659  12.882  0.00  0.00    +0.000 HD
TER 
REMARK  Name = /mnt/c/Personal/tickdock/data/docking/counterdock_calibration/2W9H_protein.pdb
REMARK                            x       y       z     vdW  Elec       q    Type
REMARK                         _______ _______ _______ _____ _____    ______ ____
ATOM      1  C   UNL    23       0.131  17.300  10.217  0.00  0.00    +0.341 C 
ATOM      2  O   UNL    23      -0.388  17.434   9.117  0.00  0.00    -0.262 OA
ATOM      3  N   UNL    23       0.830  18.257  10.822  0.00  0.00    -0.080 N 
ATOM      4  H   UNL    23       0.952  19.130  10.383  0.00  0.00    +0.000 HD
ATOM      5  H   UNL    23       1.225  18.092  11.708  0.00  0.00    +0.000 HD
TER 
REMARK  Name = /mnt/c/Personal/tickdock/data/docking/counterdock_calibration/2W9H_protein.pdb
REMARK                            x       y       z     vdW  Elec       q    Type
REMARK                         _______ _______ _______ _____ _____    ______ ____
ATOM      1  N   UNL    24       0.808  18.282  10.807  0.00  0.00    -0.130 N 
ATOM      2  C   UNL    24       1.312  19.438  10.118  0.00  0.00    +0.130 C 
ATOM      3  H   UNL    24       1.377  17.470  10.569  0.00  0.00    +0.000 HD
ATOM      4  H   UNL    24      -0.158  18.114  10.527  0.00  0.00    +0.000 HD
ATOM      5  H   UNL    24       0.848  18.442  11.814  0.00  0.00    +0.000 HD
TER 
REMARK  Name = /mnt/c/Personal/tickdock/data/docking/counterdock_calibration/2W9H_protein.pdb
REMARK                            x       y       z     vdW  Elec       q    Type
REMARK                         _______ _______ _______ _____ _____    ______ ____
ATOM      1  C   UNL    24       1.289  19.424  10.037  0.00  0.00    +0.000 C 
TER 
REMARK  Name = /mnt/c/Personal/tickdock/data/docking/counterdock_calibration/2W9H_protein.pdb
REMARK                            x       y       z     vdW  Elec       q    Type
REMARK                         _______ _______ _______ _____ _____    ______ ____
ATOM      1  C   UNL    25       2.476  19.063   9.143  0.00  0.00    +0.000 C 
TER 
REMARK  Name = /mnt/c/Personal/tickdock/data/docking/counterdock_calibration/2W9H_protein.pdb
REMARK                            x       y       z     vdW  Elec       q    Type
REMARK                         _______ _______ _______ _____ _____    ______ ____
ATOM      1  C   UNL    27       2.549  19.149   9.254  0.00  0.00    +0.279 C 
ATOM      2  O   UNL    27       2.868  19.914   8.344  0.00  0.00    -0.279 OA
TER 
REMARK  Name = /mnt/c/Personal/tickdock/data/docking/counterdock_calibration/2W9H_protein.pdb
REMARK                            x       y       z     vdW  Elec       q    Type
REMARK                         _______ _______ _______ _____ _____    ______ ____
ATOM      1  O   HOH    26       2.695  19.691   8.106  0.00  0.00    +0.000 OA
ATOM      2  H   HOH    26       3.665  19.691   8.106  0.00  0.00    +0.000 HD
ATOM      3  H   HOH    26       2.372  18.885   8.538  0.00  0.00    +0.000 HD
TER 
REMARK  Name = /mnt/c/Personal/tickdock/data/docking/counterdock_calibration/2W9H_protein.pdb
REMARK                            x       y       z     vdW  Elec       q    Type
REMARK                         _______ _______ _______ _____ _____    ______ ____
ATOM      1  C   UNL    27       1.643  20.598  10.954  0.00  0.00    +0.000 C 
TER 
REMARK  Name = /mnt/c/Personal/tickdock/data/docking/counterdock_calibration/2W9H_protein.pdb
REMARK                            x       y       z     vdW  Elec       q    Type
REMARK                         _______ _______ _______ _____ _____    ______ ____
ATOM      1  C   UNL    29       1.601  20.566  11.115  0.00  0.00    +0.000 C 
ATOM      2  C   UNL    29       0.574  20.926  11.991  0.00  0.00    +0.000 C 
TER 
REMARK  Name = /mnt/c/Personal/tickdock/data/docking/counterdock_calibration/2W9H_protein.pdb
REMARK                            x       y       z     vdW  Elec       q    Type
REMARK                         _______ _______ _______ _____ _____    ______ ____
ATOM      1  C   UNL    28       0.444  20.876  12.073  0.00  0.00    +0.228 C 
ATOM      2  C   UNL    28      -0.474  21.904  11.493  0.00  0.00    +0.376 C 
ATOM      3  C   UNL    28       0.700  20.389  13.493  0.00  0.00    +0.376 C 
ATOM      4  O   UNL    28      -0.268  22.535  10.431  0.00  0.00    -0.245 OA
ATOM      5  O   UNL    28       1.865  20.070  13.816  0.00  0.00    -0.245 OA
ATOM      6  O   UNL    28      -1.509  22.050  12.182  0.00  0.00    -0.245 OA
ATOM      7  O   UNL    28      -0.261  20.330  14.293  0.00  0.00    -0.245 OA
TER 
REMARK  Name = /mnt/c/Personal/tickdock/data/docking/counterdock_calibration/2W9H_protein.pdb
REMARK                            x       y       z     vdW  Elec       q    Type
REMARK                         _______ _______ _______ _____ _____    ______ ____
ATOM      1  N   UNL    29       3.236  18.043   9.538  0.00  0.00    -0.122 N 
ATOM      2  C   UNL    29       4.412  17.626   8.760  0.00  0.00    +0.181 C 
ATOM      3  C   UNL    29       4.137  16.399   7.895  0.00  0.00    +0.260 C 
ATOM      4  O   UNL    29       4.902  16.090   6.980  0.00  0.00    -0.272 OA
ATOM      5  C   UNL    29       5.593  17.323   9.682  0.00  0.00    +0.142 C 
ATOM      6  C   UNL    29       6.144  18.562  10.354  0.00  0.00    +0.367 C 
ATOM      7  O   UNL    29       6.058  19.658   9.757  0.00  0.00    -0.246 OA
ATOM      8  O   UNL    29       6.662  18.438  11.483  0.00  0.00    -0.246 OA
ATOM      9  N   UNL    29       3.049  15.704   8.208  0.00  0.00    -0.196 N 
ATOM     10  C   UNL    29       2.752  14.401   7.612  0.00  0.00    +0.177 C 
ATOM     11  C   UNL    29       1.317  14.345   7.110  0.00  0.00    +0.262 C 
ATOM     12  O   UNL    29       0.390  14.769   7.802  0.00  0.00    -0.271 OA
ATOM     13  C   UNL    29       2.994  13.276   8.631  0.00  0.00    +0.055 C 
ATOM     14  C   UNL    29       4.428  13.159   9.042  0.00  0.00    -0.016 C 
ATOM     15  C   UNL    29       5.005  13.677  10.168  0.00  0.00    +0.148 C 
ATOM     16  C   UNL    29       5.484  12.522   8.306  0.00  0.00    +0.011 A 
ATOM     17  N   UNL    29       6.345  13.383  10.189  0.00  0.00    -0.266 NA
ATOM     18  C   UNL    29       6.666  12.675   9.059  0.00  0.00    +0.076 A 
ATOM     19  C   UNL    29       5.542  11.834   7.086  0.00  0.00    +0.001 A 
ATOM     20  C   UNL    29       7.899  12.157   8.638  0.00  0.00    +0.019 A 
ATOM     21  C   UNL    29       6.769  11.314   6.669  0.00  0.00    +0.000 A 
ATOM     22  C   UNL    29       7.932  11.485   7.445  0.00  0.00    +0.002 A 
ATOM     23  N   UNL    29       1.150  13.813   5.904  0.00  0.00    -0.196 N 
ATOM     24  C   UNL    29      -0.163  13.612   5.289  0.00  0.00    +0.173 C 
ATOM     25  C   UNL    29      -0.519  12.128   5.338  0.00  0.00    +0.262 C 
ATOM     26  O   UNL    29       0.311  11.287   5.014  0.00  0.00    -0.271 OA
ATOM     27  C   UNL    29      -0.129  14.070   3.823  0.00  0.00    +0.043 C 
ATOM     28  C   UNL    29      -1.457  13.933   3.094  0.00  0.00    +0.116 C 
ATOM     29  C   UNL    29      -2.366  15.133   3.306  0.00  0.00    +0.365 C 
ATOM     30  O   UNL    29      -1.860  16.278   3.307  0.00  0.00    -0.246 OA
ATOM     31  O   UNL    29      -3.587  14.930   3.469  0.00  0.00    -0.246 OA
ATOM     32  N   UNL    29      -1.753  11.818   5.727  0.00  0.00    -0.196 N 
ATOM     33  C   UNL    29      -2.250  10.445   5.688  0.00  0.00    +0.173 C 
ATOM     34  C   UNL    29      -2.592  10.050   4.256  0.00  0.00    +0.261 C 
ATOM     35  O   UNL    29      -3.540  10.579   3.659  0.00  0.00    -0.271 OA
ATOM     36  C   UNL    29      -3.504  10.291   6.561  0.00  0.00    +0.029 C 
ATOM     37  C   UNL    29      -4.057   8.871   6.454  0.00  0.00    +0.002 C 
ATOM     38  C   UNL    29      -3.190  10.648   7.994  0.00  0.00    +0.002 C 
ATOM     39  N   UNL    29      -1.801   9.142   3.695  0.00  0.00    -0.204 N 
ATOM     40  C   UNL    29      -2.069   8.603   2.364  0.00  0.00    +0.115 C 
ATOM     41  C   UNL    29      -0.775   8.199   1.669  0.00  0.00    +0.025 C 
ATOM     42  H   UNL    29       2.461  18.240   8.904  0.00  0.00    +0.000 HD
ATOM     43  H   UNL    29       3.461  18.883  10.071  0.00  0.00    +0.000 HD
ATOM     44  H   UNL    29       2.970  17.295  10.179  0.00  0.00    +0.000 HD
ATOM     45  H   UNL    29       2.419  16.079   8.865  0.00  0.00    +0.000 HD
ATOM     46  H   UNL    29       1.950  13.540   5.399  0.00  0.00    +0.000 HD
ATOM     47  H   UNL    29      -2.347  12.533   6.050  0.00  0.00    +0.000 HD
ATOM     48  H   UNL    29      -1.012   8.823   4.190  0.00  0.00    +0.000 HD
TER 
REMARK  Name = /mnt/c/Personal/tickdock/data/docking/counterdock_calibration/2W9H_protein.pdb
REMARK                            x       y       z     vdW  Elec       q    Type
REMARK                         _______ _______ _______ _____ _____    ______ ____
ATOM      1  C   UNL    30      -3.041   7.441   2.385  0.00  0.00    +0.320 C 
ATOM      2  O   UNL    30      -3.822   7.251   1.446  0.00  0.00    -0.263 OA
ATOM      3  N   UNL    30      -2.994   6.646   3.445  0.00  0.00    -0.196 N 
ATOM      4  C   UNL    30      -3.847   5.498   3.628  0.00  0.00    +0.139 C 
ATOM      5  H   UNL    30      -2.337   6.852   4.149  0.00  0.00    +0.000 HD
TER 
REMARK  Name = /mnt/c/Personal/tickdock/data/docking/counterdock_calibration/2W9H_protein.pdb
REMARK                            x       y       z     vdW  Elec       q    Type
REMARK                         _______ _______ _______ _____ _____    ______ ____
ATOM      1  N   UNL    31      -2.988   6.662   3.462  0.00  0.00    +0.000 N 
ATOM      2  H   UNL    31      -1.968   6.662   3.462  0.00  0.00    +0.000 HD
ATOM      3  H   UNL    31      -3.328   6.140   2.655  0.00  0.00    +0.000 HD
ATOM      4  H   UNL    31      -3.328   7.622   3.413  0.00  0.00    +0.000 HD
ATOM      5  H   UNL    31      -3.328   6.224   4.318  0.00  0.00    +0.000 HD
TER 
REMARK  Name = /mnt/c/Personal/tickdock/data/docking/counterdock_calibration/2W9H_protein.pdb
REMARK                            x       y       z     vdW  Elec       q    Type
REMARK                         _______ _______ _______ _____ _____    ______ ____
ATOM      1  C   UNL    32      -3.966   5.583   3.606  0.00  0.00    +0.000 C 
TER 
REMARK  Name = /mnt/c/Personal/tickdock/data/docking/counterdock_calibration/2W9H_protein.pdb
REMARK                            x       y       z     vdW  Elec       q    Type
REMARK                         _______ _______ _______ _____ _____    ______ ____
ATOM      1  C   UNL    33      -4.105   5.224   5.069  0.00  0.00    +0.000 C 
TER 
REMARK  Name = /mnt/c/Personal/tickdock/data/docking/counterdock_calibration/2W9H_protein.pdb
REMARK                            x       y       z     vdW  Elec       q    Type
REMARK                         _______ _______ _______ _____ _____    ______ ____
ATOM      1  C   UNL    33      -4.108   5.300   5.116  0.00  0.00    +0.279 C 
ATOM      2  O   UNL    33      -3.136   5.267   5.833  0.00  0.00    -0.279 OA
TER 
REMARK  Name = /mnt/c/Personal/tickdock/data/docking/counterdock_calibration/2W9H_protein.pdb
REMARK                            x       y       z     vdW  Elec       q    Type
REMARK                         _______ _______ _______ _____ _____    ______ ____
ATOM      1  O   HOH    34      -3.223   5.538   5.947  0.00  0.00    +0.000 OA
ATOM      2  H   HOH    34      -2.253   5.538   5.947  0.00  0.00    +0.000 HD
ATOM      3  H   HOH    34      -3.546   4.895   5.297  0.00  0.00    +0.000 HD
TER 
REMARK  Name = /mnt/c/Personal/tickdock/data/docking/counterdock_calibration/2W9H_protein.pdb
REMARK                            x       y       z     vdW  Elec       q    Type
REMARK                         _______ _______ _______ _____ _____    ______ ____
ATOM      1  C   UNL    35      -3.569   4.355   2.788  0.00  0.00    +0.217 C 
ATOM      2  C   UNL    35      -3.170   4.256   3.038  0.00  0.00    +0.217 C 
ATOM      3  O   UNL    35      -2.414   3.740   3.339  0.00  0.00    -0.217 OA
ATOM      4  O   UNL    35      -3.985   3.104   3.166  0.00  0.00    -0.217 OA
ATOM      5  H   UNL    35      -2.603   3.371   4.216  0.00  0.00    +0.000 HD
ATOM      6  H   UNL    35      -3.309   2.452   2.923  0.00  0.00    +0.000 HD
TER 
REMARK  Name = /mnt/c/Personal/tickdock/data/docking/counterdock_calibration/2W9H_protein.pdb
REMARK                            x       y       z     vdW  Elec       q    Type
REMARK                         _______ _______ _______ _____ _____    ______ ____
ATOM      1  N   UNL    36      -5.329   4.898   5.453  0.00  0.00    -0.120 N 
ATOM      2  CA  UNL    36      -5.651   4.500   6.812  0.00  0.00    +0.202 C 
ATOM      3  C   UNL    36      -6.622   3.329   6.720  0.00  0.00    +0.262 C 
ATOM      4  O   UNL    36      -7.672   3.438   6.074  0.00  0.00    -0.272 OA
ATOM      5  C   UNL    36      -6.294   5.669   7.561  0.00  0.00    +0.210 C 
ATOM      6  O   UNL    36      -6.629   5.298   8.882  0.00  0.00    -0.218 OA
ATOM      7  N   UNL    36      -6.255   2.205   7.333  0.00  0.00    -0.196 N 
ATOM      8  C   UNL    36      -7.040   0.965   7.242  0.00  0.00    +0.173 C 
ATOM      9  C   UNL    36      -7.149   0.345   8.632  0.00  0.00    +0.262 C 
ATOM     10  O   UNL    36      -6.142   0.126   9.295  0.00  0.00    -0.271 OA
ATOM     11  C   UNL    36      -6.360  -0.067   6.300  0.00  0.00    +0.029 C 
ATOM     12  C   UNL    36      -7.136  -1.378   6.280  0.00  0.00    +0.002 C 
ATOM     13  C   UNL    36      -6.217   0.497   4.888  0.00  0.00    +0.002 C 
ATOM     14  N   UNL    36      -8.365   0.064   9.086  0.00  0.00    -0.196 N 
ATOM     15  C   UNL    36      -8.524  -0.561  10.389  0.00  0.00    +0.173 C 
ATOM     16  C   UNL    36      -8.122  -2.026  10.333  0.00  0.00    +0.262 C 
ATOM     17  O   UNL    36      -8.529  -2.757   9.428  0.00  0.00    -0.271 OA
ATOM     18  C   UNL    36      -9.948  -0.398  10.927  0.00  0.00    +0.043 C 
ATOM     19  C   UNL    36     -10.071  -0.593  12.453  0.00  0.00    +0.116 C 
ATOM     20  C   UNL    36      -9.271   0.421  13.284  0.00  0.00    +0.365 C 
ATOM     21  O   UNL    36      -8.768   1.416  12.719  0.00  0.00    -0.246 OA
ATOM     22  O   UNL    36      -9.145   0.223  14.517  0.00  0.00    -0.246 OA
ATOM     23  N   UNL    36      -7.316  -2.455  11.299  0.00  0.00    -0.194 N 
ATOM     24  C   UNL    36      -6.934  -3.861  11.391  0.00  0.00    +0.201 C 
ATOM     25  C   UNL    36      -8.076  -4.764  11.815  0.00  0.00    +0.264 C 
ATOM     26  O   UNL    36      -8.935  -4.374  12.615  0.00  0.00    -0.271 OA
ATOM     27  N   UNL    36      -8.075  -5.980  11.277  0.00  0.00    -0.196 N 
ATOM     28  C   UNL    36      -9.070  -6.980  11.641  0.00  0.00    +0.173 C 
ATOM     29  C   UNL    36      -8.711  -7.650  12.968  0.00  0.00    +0.262 C 
ATOM     30  O   UNL    36      -7.541  -7.902  13.255  0.00  0.00    -0.271 OA
ATOM     31  C   UNL    36      -9.191  -8.026  10.528  0.00  0.00    +0.031 C 
ATOM     32  C   UNL    36      -9.914  -7.508   9.296  0.00  0.00    +0.004 C 
ATOM     33  C   UNL    36      -9.699  -8.393   8.084  0.00  0.00    +0.021 C 
ATOM     34  C   UNL    36     -10.372  -7.792   6.858  0.00  0.00    +0.109 C 
ATOM     35  N   UNL    36     -10.062  -8.562   5.623  0.00  0.00    -0.131 N 
ATOM     36  N   UNL    36      -9.731  -7.931  13.769  0.00  0.00    -0.196 N 
ATOM     37  C   UNL    36      -9.544  -8.534  15.075  0.00  0.00    +0.173 C 
ATOM     38  C   UNL    36     -10.015  -9.980  15.050  0.00  0.00    +0.262 C 
ATOM     39  O   UNL    36     -10.944 -10.332  14.325  0.00  0.00    -0.271 OA
ATOM     40  C   UNL    36     -10.302  -7.739  16.137  0.00  0.00    +0.031 C 
ATOM     41  C   UNL    36      -9.925  -6.253  16.196  0.00  0.00    +0.002 C 
ATOM     42  C   UNL    36     -10.686  -5.537  17.301  0.00  0.00    +0.000 C 
ATOM     43  C   UNL    36      -8.420  -6.089  16.391  0.00  0.00    +0.000 C 
ATOM     44  N   UNL    36      -9.353 -10.816  15.835  0.00  0.00    -0.196 N 
ATOM     45  C   UNL    36      -9.770 -12.200  16.017  0.00  0.00    +0.184 C 
ATOM     46  C   UNL    36      -9.211 -12.660  17.357  0.00  0.00    +0.262 C 
ATOM     47  O   UNL    36      -8.724 -11.835  18.128  0.00  0.00    -0.271 OA
ATOM     48  C   UNL    36      -9.274 -13.071  14.857  0.00  0.00    +0.145 C 
ATOM     49  C   UNL    36      -7.779 -12.936  14.611  0.00  0.00    +0.367 C 
ATOM     50  O   UNL    36      -7.005 -12.867  15.592  0.00  0.00    -0.246 OA
ATOM     51  O   UNL    36      -7.373 -12.890  13.430  0.00  0.00    -0.246 OA
ATOM     52  N   UNL    36      -9.289 -13.952  17.661  0.00  0.00    -0.196 N 
ATOM     53  C   UNL    36      -8.908 -14.374  19.012  0.00  0.00    +0.173 C 
ATOM     54  C   UNL    36      -7.432 -14.124  19.331  0.00  0.00    +0.262 C 
ATOM     55  O   UNL    36      -7.065 -13.920  20.494  0.00  0.00    -0.271 OA
ATOM     56  C   UNL    36      -9.339 -15.812  19.321  0.00  0.00    +0.043 C 
ATOM     57  C   UNL    36      -8.497 -16.900  18.688  0.00  0.00    +0.116 C 
ATOM     58  C   UNL    36      -8.873 -18.283  19.201  0.00  0.00    +0.365 C 
ATOM     59  O   UNL    36      -8.565 -19.279  18.514  0.00  0.00    -0.246 OA
ATOM     60  O   UNL    36      -9.485 -18.367  20.283  0.00  0.00    -0.246 OA
ATOM     61  N   UNL    36      -6.603 -14.100  18.290  0.00  0.00    -0.196 N 
ATOM     62  C   UNL    36      -5.162 -13.886  18.444  0.00  0.00    +0.173 C 
ATOM     63  C   UNL    36      -4.753 -12.425  18.253  0.00  0.00    +0.262 C 
ATOM     64  O   UNL    36      -3.602 -12.060  18.492  0.00  0.00    -0.271 OA
ATOM     65  C   UNL    36      -4.393 -14.772  17.470  0.00  0.00    +0.031 C 
ATOM     66  C   UNL    36      -4.558 -16.261  17.761  0.00  0.00    +0.004 C 
ATOM     67  C   UNL    36      -3.816 -17.126  16.758  0.00  0.00    +0.021 C 
ATOM     68  C   UNL    36      -3.412 -18.454  17.387  0.00  0.00    +0.109 C 
ATOM     69  N   UNL    36      -3.761 -19.615  16.523  0.00  0.00    -0.131 N 
ATOM     70  N   UNL    36      -5.702 -11.594  17.837  0.00  0.00    -0.196 N 
ATOM     71  C   UNL    36      -5.462 -10.167  17.612  0.00  0.00    +0.182 C 
ATOM     72  C   UNL    36      -6.594  -9.381  18.239  0.00  0.00    +0.262 C 
ATOM     73  O   UNL    36      -7.611  -9.133  17.591  0.00  0.00    -0.271 OA
ATOM     74  C   UNL    36      -5.421  -9.861  16.116  0.00  0.00    +0.120 C 
ATOM     75  C   UNL    36      -4.269 -10.532  15.429  0.00  0.00    +0.263 C 
ATOM     76  O   UNL    36      -3.172  -9.982  15.372  0.00  0.00    -0.272 OA
ATOM     77  N   UNL    36      -4.496 -11.747  14.934  0.00  0.00    -0.088 N 
ATOM     78  N   UNL    36      -6.426  -9.002  19.500  0.00  0.00    -0.194 N 
ATOM     79  C   UNL    36      -7.556  -8.511  20.281  0.00  0.00    +0.203 C 
ATOM     80  C   UNL    36      -7.543  -7.008  20.531  0.00  0.00    +0.264 C 
ATOM     81  O   UNL    36      -8.538  -6.448  20.984  0.00  0.00    -0.271 OA
ATOM     82  C   UNL    36      -7.676  -9.247  21.627  0.00  0.00    +0.181 C 
ATOM     83  O   UNL    36      -6.501  -9.002  22.405  0.00  0.00    -0.221 OA
ATOM     84  C   UNL    36      -7.860 -10.743  21.411  0.00  0.00    +0.038 C 
ATOM     85  N   UNL    36      -6.422  -6.345  20.249  0.00  0.00    -0.196 N 
ATOM     86  C   UNL    36      -6.361  -4.897  20.441  0.00  0.00    +0.171 C 
ATOM     87  C   UNL    36      -6.622  -4.201  19.113  0.00  0.00    +0.246 C 
ATOM     88  O   UNL    36      -5.969  -4.512  18.119  0.00  0.00    -0.273 OA
ATOM     89  C   UNL    36      -5.004  -4.403  21.017  0.00  0.00    +0.029 C 
ATOM     90  C   UNL    36      -5.068  -2.905  21.336  0.00  0.00    +0.002 C 
ATOM     91  C   UNL    36      -3.881  -4.657  20.054  0.00  0.00    +0.002 C 
ATOM     92  C   UNL    36      -5.917  -2.565  22.523  0.00  0.00    +0.000 C 
ATOM     93  N   UNL    36      -7.570  -3.250  19.095  0.00  0.00    -0.272 N 
ATOM     94  C   UNL    36      -7.799  -2.453  17.897  0.00  0.00    +0.154 C 
ATOM     95  C   UNL    36      -6.507  -1.792  17.428  0.00  0.00    +0.260 C 
ATOM     96  O   UNL    36      -5.693  -1.336  18.246  0.00  0.00    -0.272 OA
ATOM     97  C   UNL    36      -8.831  -1.414  18.354  0.00  0.00    +0.031 C 
ATOM     98  C   UNL    36      -9.550  -2.074  19.461  0.00  0.00    +0.024 C 
ATOM     99  C   UNL    36      -8.492  -2.870  20.183  0.00  0.00    +0.094 C 
ATOM    100  N   UNL    36      -6.311  -1.763  16.117  0.00  0.00    -0.196 N 
ATOM    101  C   UNL    36      -5.102  -1.169  15.543  0.00  0.00    +0.179 C 
ATOM    102  C   UNL    36      -5.414  -0.649  14.149  0.00  0.00    +0.262 C 
ATOM    103  O   UNL    36      -6.343  -1.131  13.493  0.00  0.00    -0.271 OA
ATOM    104  C   UNL    36      -3.944  -2.187  15.513  0.00  0.00    +0.079 C 
ATOM    105  C   UNL    36      -4.277  -3.485  14.830  0.00  0.00    +0.082 A 
ATOM    106  N   UNL    36      -5.123  -4.429  15.377  0.00  0.00    -0.227 N 
ATOM    107  C   UNL    36      -3.843  -4.006  13.657  0.00  0.00    +0.115 A 
ATOM    108  C   UNL    36      -5.213  -5.465  14.560  0.00  0.00    +0.199 A 
ATOM    109  N   UNL    36      -4.439  -5.239  13.512  0.00  0.00    -0.221 NA
ATOM    110  N   UNL    36      -4.647   0.341  13.710  0.00  0.00    -0.194 N 
ATOM    111  C   UNL    36      -4.894   1.016  12.445  0.00  0.00    +0.203 C 
ATOM    112  C   UNL    36      -3.589   1.094  11.674  0.00  0.00    +0.264 C 
ATOM    113  O   UNL    36      -2.571   1.495  12.224  0.00  0.00    -0.271 OA
ATOM    114  C   UNL    36      -5.396   2.433  12.703  0.00  0.00    +0.181 C 
ATOM    115  O   UNL    36      -6.481   2.392  13.639  0.00  0.00    -0.221 OA
ATOM    116  C   UNL    36      -5.846   3.103  11.415  0.00  0.00    +0.038 C 
ATOM    117  N   UNL    36      -3.615   0.692  10.407  0.00  0.00    -0.196 N 
ATOM    118  C   UNL    36      -2.439   0.805   9.559  0.00  0.00    +0.177 C 
ATOM    119  C   UNL    36      -2.462   2.122   8.800  0.00  0.00    +0.262 C 
ATOM    120  O   UNL    36      -3.388   2.376   8.018  0.00  0.00    -0.271 OA
ATOM    121  C   UNL    36      -2.382  -0.358   8.560  0.00  0.00    +0.057 C 
ATOM    122  C   UNL    36      -2.308  -1.722   9.215  0.00  0.00    -0.020 A 
ATOM    123  C   UNL    36      -1.186  -2.103   9.938  0.00  0.00    -0.004 A 
ATOM    124  C   UNL    36      -3.360  -2.618   9.105  0.00  0.00    -0.004 A 
ATOM    125  C   UNL    36      -1.109  -3.365  10.533  0.00  0.00    -0.000 A 
ATOM    126  C   UNL    36      -3.295  -3.876   9.695  0.00  0.00    -0.000 A 
ATOM    127  C   UNL    36      -2.169  -4.248  10.415  0.00  0.00    -0.000 A 
ATOM    128  N   UNL    36      -1.447   2.954   9.031  0.00  0.00    -0.196 N 
ATOM    129  C   UNL    36      -1.298   4.243   8.335  0.00  0.00    +0.173 C 
ATOM    130  C   UNL    36      -0.106   4.232   7.399  0.00  0.00    +0.262 C 
ATOM    131  O   UNL    36       0.954   3.706   7.744  0.00  0.00    -0.271 OA
ATOM    132  C   UNL    36      -1.070   5.378   9.336  0.00  0.00    +0.031 C 
ATOM    133  C   UNL    36      -2.088   5.590  10.457  0.00  0.00    +0.002 C 
ATOM    134  C   UNL    36      -1.639   6.776  11.314  0.00  0.00    +0.000 C 
ATOM    135  C   UNL    36      -3.464   5.871   9.854  0.00  0.00    +0.000 C 
ATOM    136  N   UNL    36      -0.259   4.868   6.242  0.00  0.00    -0.196 N 
ATOM    137  C   UNL    36       0.889   5.247   5.437  0.00  0.00    +0.178 C 
ATOM    138  C   UNL    36       0.915   6.751   5.394  0.00  0.00    +0.262 C 
ATOM    139  O   UNL    36      -0.049   7.369   4.953  0.00  0.00    -0.271 OA
ATOM    140  C   UNL    36       0.792   4.663   4.021  0.00  0.00    +0.074 C 
ATOM    141  C   UNL    36       1.943   5.029   3.141  0.00  0.00    +0.065 C 
ATOM    142  N   UNL    36       1.795   5.332   1.802  0.00  0.00    -0.231 NA
ATOM    143  C   UNL    36       3.261   5.176   3.420  0.00  0.00    +0.168 C 
ATOM    144  C   UNL    36       2.980   5.619   1.288  0.00  0.00    +0.194 C 
ATOM    145  N   UNL    36       3.887   5.523   2.247  0.00  0.00    -0.244 NA
ATOM    146  N   UNL    36       2.002   7.325   5.908  0.00  0.00    -0.196 N 
ATOM    147  C   UNL    36       2.164   8.778   6.001  0.00  0.00    +0.173 C 
ATOM    148  C   UNL    36       3.255   9.243   5.059  0.00  0.00    +0.262 C 
ATOM    149  O   UNL    36       4.324   8.635   4.985  0.00  0.00    -0.271 OA
ATOM    150  C   UNL    36       2.539   9.185   7.432  0.00  0.00    +0.031 C 
ATOM    151  C   UNL    36       1.572   8.777   8.547  0.00  0.00    +0.002 C 
ATOM    152  C   UNL    36       1.947   9.516   9.831  0.00  0.00    +0.000 C 
ATOM    153  C   UNL    36       0.134   9.067   8.166  0.00  0.00    +0.000 C 
ATOM    154  N   UNL    36       2.989  10.330   4.347  0.00  0.00    -0.196 N 
ATOM    155  C   UNL    36       3.988  10.931   3.475  0.00  0.00    +0.173 C 
ATOM    156  C   UNL    36       4.185  12.386   3.899  0.00  0.00    +0.262 C 
ATOM    157  O   UNL    36       3.345  12.942   4.592  0.00  0.00    -0.271 OA
ATOM    158  C   UNL    36       3.582  10.831   1.979  0.00  0.00    +0.029 C 
ATOM    159  C   UNL    36       2.331  11.667   1.695  0.00  0.00    +0.002 C 
ATOM    160  C   UNL    36       3.367   9.354   1.586  0.00  0.00    +0.002 C 
ATOM    161  C   UNL    36       1.909  11.645   0.232  0.00  0.00    +0.000 C 
ATOM    162  N   UNL    36       5.301  13.002   3.516  0.00  0.00    -0.196 N 
ATOM    163  C   UNL    36       5.564  14.381   3.955  0.00  0.00    +0.173 C 
ATOM    164  C   UNL    36       4.601  15.411   3.381  0.00  0.00    +0.262 C 
ATOM    165  O   UNL    36       4.243  15.365   2.198  0.00  0.00    -0.271 OA
ATOM    166  C   UNL    36       6.995  14.793   3.653  0.00  0.00    +0.033 C 
ATOM    167  C   UNL    36       7.985  13.972   4.403  0.00  0.00    +0.029 C 
ATOM    168  C   UNL    36       9.328  14.667   4.531  0.00  0.00    +0.129 C 
ATOM    169  N   UNL    36      10.226  13.785   5.265  0.00  0.00    -0.234 N 
ATOM    170  C   UNL    36      10.436  13.850   6.575  0.00  0.00    +0.284 C 
ATOM    171  N   UNL    36       9.847  14.789   7.308  0.00  0.00    -0.104 N 
ATOM    172  N   UNL    36      11.256  12.980   7.149  0.00  0.00    -0.104 N 
ATOM    173  N   UNL    36       4.198  16.351   4.227  0.00  0.00    -0.196 N 
ATOM    174  C   UNL    36       3.258  17.390   3.824  0.00  0.00    +0.174 C 
ATOM    175  C   UNL    36       3.981  18.560   3.182  0.00  0.00    +0.281 C 
ATOM    176  O   UNL    36       3.718  18.906   2.025  0.00  0.00    -0.270 OA
ATOM    177  C   UNL    36       2.451  17.871   5.026  0.00  0.00    +0.031 C 
ATOM    178  C   UNL    36       0.966  17.965   4.772  0.00  0.00    +0.004 C 
ATOM    179  C   UNL    36       0.314  18.914   5.755  0.00  0.00    +0.021 C 
ATOM    180  C   UNL    36      -0.994  18.354   6.271  0.00  0.00    +0.109 C 
ATOM    181  N   UNL    36      -1.608  19.267   7.269  0.00  0.00    -0.131 N 
ATOM    182  N   UNL    36       4.843  19.181   3.807  0.00  0.00    -0.086 N 
ATOM    183  H   UNL    36      -4.901   4.113   4.961  0.00  0.00    +0.000 HD
ATOM    184  H   UNL    36      -4.677   5.682   5.474  0.00  0.00    +0.000 HD
ATOM    185  H   UNL    36      -6.182   5.178   4.969  0.00  0.00    +0.000 HD
ATOM    186  H   UNL    36      -7.264   4.565   8.861  0.00  0.00    +0.000 HD
ATOM    187  H   UNL    36      -5.428   2.204   7.867  0.00  0.00    +0.000 HD
ATOM    188  H   UNL    36      -9.157   0.278   8.542  0.00  0.00    +0.000 HD
ATOM    189  H   UNL    36      -6.971  -1.815  11.963  0.00  0.00    +0.000 HD
ATOM    190  H   UNL    36      -7.384  -6.211  10.615  0.00  0.00    +0.000 HD
ATOM    191  H   UNL    36     -10.407  -9.517   5.722  0.00  0.00    +0.000 HD
ATOM    192  H   UNL    36      -9.053  -8.578   5.477  0.00  0.00    +0.000 HD
ATOM    193  H   UNL    36     -10.514  -8.119   4.823  0.00  0.00    +0.000 HD
ATOM    194  H   UNL    36     -10.645  -7.723  13.467  0.00  0.00    +0.000 HD
ATOM    195  H   UNL    36      -8.554 -10.492  16.311  0.00  0.00    +0.000 HD
ATOM    196  H   UNL    36      -9.595 -14.609  16.995  0.00  0.00    +0.000 HD
ATOM    197  H   UNL    36      -6.971 -14.230  17.386  0.00  0.00    +0.000 HD
ATOM    198  H   UNL    36      -3.263 -19.541  15.636  0.00  0.00    +0.000 HD
ATOM    199  H   UNL    36      -4.766 -19.619  16.349  0.00  0.00    +0.000 HD
ATOM    200  H   UNL    36      -3.493 -20.480  16.992  0.00  0.00    +0.000 HD
ATOM    201  H   UNL    36      -6.604 -11.952  17.673  0.00  0.00    +0.000 HD
ATOM    202  H   UNL    36      -3.775 -12.233  14.473  0.00  0.00    +0.000 HD
ATOM    203  H   UNL    36      -5.385 -12.159  15.029  0.00  0.00    +0.000 HD
ATOM    204  H   UNL    36      -5.533  -9.053  19.911  0.00  0.00    +0.000 HD
ATOM    205  H   UNL    36      -5.724  -9.336  21.930  0.00  0.00    +0.000 HD
ATOM    206  H   UNL    36      -5.635  -6.830  19.911  0.00  0.00    +0.000 HD
ATOM    207  H   UNL    36      -6.991  -2.148  15.518  0.00  0.00    +0.000 HD
ATOM    208  H   UNL    36      -5.587  -4.344  16.241  0.00  0.00    +0.000 HD
ATOM    209  H   UNL    36      -3.883   0.629  14.260  0.00  0.00    +0.000 HD
ATOM    210  H   UNL    36      -7.209   1.869  13.268  0.00  0.00    +0.000 HD
ATOM    211  H   UNL    36      -4.444   0.312  10.037  0.00  0.00    +0.000 HD
ATOM    212  H   UNL    36      -0.768   2.696   9.695  0.00  0.00    +0.000 HD
ATOM    213  H   UNL    36      -1.165   5.086   5.925  0.00  0.00    +0.000 HD
ATOM    214  H   UNL    36       2.727   6.748   6.240  0.00  0.00    +0.000 HD
ATOM    215  H   UNL    36       2.096  10.740   4.410  0.00  0.00    +0.000 HD
ATOM    216  H   UNL    36       5.949  12.536   2.940  0.00  0.00    +0.000 HD
ATOM    217  H   UNL    36      10.709  13.095   4.756  0.00  0.00    +0.000 HD
ATOM    218  H   UNL    36       9.238  15.435   6.883  0.00  0.00    +0.000 HD
ATOM    219  H   UNL    36      10.020  14.838   8.276  0.00  0.00    +0.000 HD
ATOM    220  H   UNL    36      11.693  12.284   6.607  0.00  0.00    +0.000 HD
ATOM    221  H   UNL    36      11.428  13.030   8.117  0.00  0.00    +0.000 HD
ATOM    222  H   UNL    36       4.542  16.347   5.149  0.00  0.00    +0.000 HD
ATOM    223  H   UNL    36      -0.976  19.378   8.062  0.00  0.00    +0.000 HD
ATOM    224  H   UNL    36      -2.492  18.873   7.591  0.00  0.00    +0.000 HD
ATOM    225  H   UNL    36      -1.777  20.176   6.839  0.00  0.00    +0.000 HD
ATOM    226  H   UNL    36       5.308  19.939   3.384  0.00  0.00    +0.000 HD
ATOM    227  H   UNL    36       5.067  18.919   4.729  0.00  0.00    +0.000 HD
TER 
