MODEL 1
REMARK VINA RESULT:    -8.144      0.000      0.000
REMARK INTER + INTRA:          -9.905
REMARK INTER:                  -9.335
REMARK INTRA:                  -0.571
REMARK UNBOUND:                -0.571
REMARK  Name = /mnt/c/Personal/tickdock/data/docking/counterdock_calibration/2BL9_lig_raw.pdb
REMARK  4 active torsions:
REMARK  status: ('A' for Active; 'I' for Inactive)
REMARK    1  A    between atoms: C3_3  and  N13_13
REMARK    2  A    between atoms: C4_4  and  C7_7
REMARK    3  A    between atoms: C5_5  and  C15_15
REMARK    4  A    between atoms: C15_15  and  C16_16
REMARK                            x       y       z     vdW  Elec       q    Type
REMARK                         _______ _______ _______ _____ _____    ______ ____
ROOT
ATOM      1  N1  CP6 A1240       5.975  26.916 -24.990  0.00  0.00    -0.193 NA
ATOM      2  C2  CP6 A1240       5.258  26.474 -23.894  0.00  0.00    +0.258 A 
ATOM      3  C3  CP6 A1240       6.885  26.027 -25.623  0.00  0.00    +0.174 A 
ATOM      4  C4  CP6 A1240       7.108  24.637 -25.137  0.00  0.00    +0.049 A 
ATOM      5  C5  CP6 A1240       6.244  24.296 -23.950  0.00  0.00    +0.065 A 
ATOM      6  N6  CP6 A1240       5.372  25.186 -23.379  0.00  0.00    -0.215 NA
ATOM      7  N14 CP6 A1240       4.378  27.356 -23.254  0.00  0.00    -0.086 N 
ATOM      8  H   CP6 A1240       4.272  28.275 -23.590  0.00  0.00    +0.000 HD
ATOM      9  H   CP6 A1240       3.865  27.058 -22.469  0.00  0.00    +0.000 HD
ENDROOT
BRANCH   4  10
ATOM     10  C7  CP6 A1240       8.068  23.710 -25.753  0.00  0.00    +0.004 A 
ATOM     11  C8  CP6 A1240       9.456  23.604 -25.280  0.00  0.00    +0.001 A 
ATOM     12  C9  CP6 A1240      10.416  22.692 -25.852  0.00  0.00    +0.011 A 
ATOM     13  C10 CP6 A1240      10.038  21.868 -26.901  0.00  0.00    +0.058 A 
ATOM     14  C11 CP6 A1240       8.656  21.921 -27.417  0.00  0.00    +0.011 A 
ATOM     15  C12 CP6 A1240       7.712  22.838 -26.829  0.00  0.00    +0.001 A 
ATOM     16 CL1  CP6 A1240      11.078  20.814 -27.627  0.00  0.00    -0.082 Cl
ENDBRANCH   4  10
BRANCH   3  17
ATOM     17  N13 CP6 A1240       7.577  26.434 -26.686  0.00  0.00    -0.107 N 
ATOM     18  H   CP6 A1240       7.711  27.396 -26.848  0.00  0.00    +0.000 HD
ATOM     19  H   CP6 A1240       7.956  25.773 -27.310  0.00  0.00    +0.000 HD
ENDBRANCH   3  17
BRANCH   5  20
ATOM     20  C15 CP6 A1240       6.321  22.917 -23.340  0.00  0.00    +0.046 C 
ATOM     21  C16 CP6 A1240       7.372  22.745 -22.252  0.00  0.00    +0.007 C 
ENDBRANCH   5  20
TORSDOF 3
ENDMDL
MODEL 2
REMARK VINA RESULT:    -7.917      0.978      2.858
REMARK INTER + INTRA:          -9.645
REMARK INTER:                  -9.394
REMARK INTRA:                  -0.251
REMARK UNBOUND:                -0.571
REMARK  Name = /mnt/c/Personal/tickdock/data/docking/counterdock_calibration/2BL9_lig_raw.pdb
REMARK  4 active torsions:
REMARK  status: ('A' for Active; 'I' for Inactive)
REMARK    1  A    between atoms: C3_3  and  N13_13
REMARK    2  A    between atoms: C4_4  and  C7_7
REMARK    3  A    between atoms: C5_5  and  C15_15
REMARK    4  A    between atoms: C15_15  and  C16_16
REMARK                            x       y       z     vdW  Elec       q    Type
REMARK                         _______ _______ _______ _____ _____    ______ ____
ROOT
ATOM      1  N1  CP6 A1240       5.256  24.942 -23.441  0.00  0.00    -0.193 NA
ATOM      2  C2  CP6 A1240       5.352  26.284 -23.760  0.00  0.00    +0.258 A 
ATOM      3  C3  CP6 A1240       6.202  24.034 -23.987  0.00  0.00    +0.174 A 
ATOM      4  C4  CP6 A1240       7.286  24.474 -24.909  0.00  0.00    +0.049 A 
ATOM      5  C5  CP6 A1240       7.273  25.962 -25.147  0.00  0.00    +0.065 A 
ATOM      6  N6  CP6 A1240       6.344  26.800 -24.587  0.00  0.00    -0.215 NA
ATOM      7  N14 CP6 A1240       4.406  27.177 -23.239  0.00  0.00    -0.086 N 
ATOM      8  H   CP6 A1240       3.690  26.847 -22.651  0.00  0.00    +0.000 HD
ATOM      9  H   CP6 A1240       4.458  28.134 -23.463  0.00  0.00    +0.000 HD
ENDROOT
BRANCH   4  10
ATOM     10  C7  CP6 A1240       8.256  23.549 -25.515  0.00  0.00    +0.004 A 
ATOM     11  C8  CP6 A1240       7.899  22.687 -26.651  0.00  0.00    +0.001 A 
ATOM     12  C9  CP6 A1240       8.831  21.783 -27.278  0.00  0.00    +0.011 A 
ATOM     13  C10 CP6 A1240      10.132  21.703 -26.804  0.00  0.00    +0.058 A 
ATOM     14  C11 CP6 A1240      10.556  22.548 -25.670  0.00  0.00    +0.011 A 
ATOM     15  C12 CP6 A1240       9.608  23.447 -25.060  0.00  0.00    +0.001 A 
ATOM     16 CL1  CP6 A1240      11.255  20.681 -27.447  0.00  0.00    -0.082 Cl
ENDBRANCH   4  10
BRANCH   3  17
ATOM     17  N13 CP6 A1240       6.129  22.738 -23.684  0.00  0.00    -0.107 N 
ATOM     18  H   CP6 A1240       6.382  22.429 -22.784  0.00  0.00    +0.000 HD
ATOM     19  H   CP6 A1240       5.823  22.091 -24.359  0.00  0.00    +0.000 HD
ENDBRANCH   3  17
BRANCH   5  20
ATOM     20  C15 CP6 A1240       8.320  26.587 -26.038  0.00  0.00    +0.046 C 
ATOM     21  C16 CP6 A1240       8.269  26.159 -27.498  0.00  0.00    +0.007 C 
ENDBRANCH   5  20
TORSDOF 3
ENDMDL
MODEL 3
REMARK VINA RESULT:    -7.202      2.596      4.302
REMARK INTER + INTRA:          -8.825
REMARK INTER:                  -8.326
REMARK INTRA:                  -0.499
REMARK UNBOUND:                -0.571
REMARK  Name = /mnt/c/Personal/tickdock/data/docking/counterdock_calibration/2BL9_lig_raw.pdb
REMARK  4 active torsions:
REMARK  status: ('A' for Active; 'I' for Inactive)
REMARK    1  A    between atoms: C3_3  and  N13_13
REMARK    2  A    between atoms: C4_4  and  C7_7
REMARK    3  A    between atoms: C5_5  and  C15_15
REMARK    4  A    between atoms: C15_15  and  C16_16
REMARK                            x       y       z     vdW  Elec       q    Type
REMARK                         _______ _______ _______ _____ _____    ______ ____
ROOT
ATOM      1  N1  CP6 A1240       6.641  26.034 -24.583  0.00  0.00    -0.193 NA
ATOM      2  C2  CP6 A1240       7.937  26.269 -25.004  0.00  0.00    +0.258 A 
ATOM      3  C3  CP6 A1240       6.304  24.752 -24.070  0.00  0.00    +0.174 A 
ATOM      4  C4  CP6 A1240       7.296  23.643 -23.987  0.00  0.00    +0.049 A 
ATOM      5  C5  CP6 A1240       8.664  24.056 -24.464  0.00  0.00    +0.065 A 
ATOM      6  N6  CP6 A1240       8.943  25.310 -24.941  0.00  0.00    -0.215 NA
ATOM      7  N14 CP6 A1240       8.264  27.525 -25.531  0.00  0.00    -0.086 N 
ATOM      8  H   CP6 A1240       7.578  28.227 -25.592  0.00  0.00    +0.000 HD
ATOM      9  H   CP6 A1240       9.181  27.705 -25.841  0.00  0.00    +0.000 HD
ENDROOT
BRANCH   4  10
ATOM     10  C7  CP6 A1240       6.964  22.299 -23.493  0.00  0.00    +0.004 A 
ATOM     11  C8  CP6 A1240       6.987  21.973 -22.059  0.00  0.00    +0.001 A 
ATOM     12  C9  CP6 A1240       6.650  20.669 -21.542  0.00  0.00    +0.011 A 
ATOM     13  C10 CP6 A1240       6.286  19.657 -22.417  0.00  0.00    +0.058 A 
ATOM     14  C11 CP6 A1240       6.235  19.923 -23.869  0.00  0.00    +0.011 A 
ATOM     15  C12 CP6 A1240       6.574  21.235 -24.364  0.00  0.00    +0.001 A 
ATOM     16 CL1  CP6 A1240       5.908  18.133 -21.913  0.00  0.00    -0.082 Cl
ENDBRANCH   4  10
BRANCH   3  17
ATOM     17  N13 CP6 A1240       5.063  24.511 -23.651  0.00  0.00    -0.107 N 
ATOM     18  H   CP6 A1240       4.562  23.743 -24.011  0.00  0.00    +0.000 HD
ATOM     19  H   CP6 A1240       4.645  25.101 -22.983  0.00  0.00    +0.000 HD
ENDBRANCH   3  17
BRANCH   5  20
ATOM     20  C15 CP6 A1240       9.801  23.062 -24.427  0.00  0.00    +0.046 C 
ATOM     21  C16 CP6 A1240      10.366  22.670 -25.785  0.00  0.00    +0.007 C 
ENDBRANCH   5  20
TORSDOF 3
ENDMDL
MODEL 4
REMARK VINA RESULT:    -7.180      7.066      8.743
REMARK INTER + INTRA:          -8.801
REMARK INTER:                  -8.244
REMARK INTRA:                  -0.557
REMARK UNBOUND:                -0.571
REMARK  Name = /mnt/c/Personal/tickdock/data/docking/counterdock_calibration/2BL9_lig_raw.pdb
REMARK  4 active torsions:
REMARK  status: ('A' for Active; 'I' for Inactive)
REMARK    1  A    between atoms: C3_3  and  N13_13
REMARK    2  A    between atoms: C4_4  and  C7_7
REMARK    3  A    between atoms: C5_5  and  C15_15
REMARK    4  A    between atoms: C15_15  and  C16_16
REMARK                            x       y       z     vdW  Elec       q    Type
REMARK                         _______ _______ _______ _____ _____    ______ ____
ROOT
ATOM      1  N1  CP6 A1240       2.978  15.807 -24.428  0.00  0.00    -0.193 NA
ATOM      2  C2  CP6 A1240       3.726  14.645 -24.386  0.00  0.00    +0.258 A 
ATOM      3  C3  CP6 A1240       3.578  17.027 -24.015  0.00  0.00    +0.174 A 
ATOM      4  C4  CP6 A1240       4.981  17.097 -23.520  0.00  0.00    +0.049 A 
ATOM      5  C5  CP6 A1240       5.671  15.757 -23.551  0.00  0.00    +0.065 A 
ATOM      6  N6  CP6 A1240       5.053  14.608 -23.969  0.00  0.00    -0.215 NA
ATOM      7  N14 CP6 A1240       3.129  13.437 -24.772  0.00  0.00    -0.086 N 
ATOM      8  H   CP6 A1240       2.192  13.426 -25.072  0.00  0.00    +0.000 HD
ATOM      9  H   CP6 A1240       3.647  12.601 -24.742  0.00  0.00    +0.000 HD
ENDROOT
BRANCH   4  10
ATOM     10  C7  CP6 A1240       5.613  18.340 -23.055  0.00  0.00    +0.004 A 
ATOM     11  C8  CP6 A1240       6.327  19.238 -23.975  0.00  0.00    +0.001 A 
ATOM     12  C9  CP6 A1240       6.942  20.472 -23.553  0.00  0.00    +0.011 A 
ATOM     13  C10 CP6 A1240       6.873  20.853 -22.222  0.00  0.00    +0.058 A 
ATOM     14  C11 CP6 A1240       6.163  19.998 -21.248  0.00  0.00    +0.011 A 
ATOM     15  C12 CP6 A1240       5.554  18.770 -21.693  0.00  0.00    +0.001 A 
ATOM     16 CL1  CP6 A1240       7.568  22.235 -21.650  0.00  0.00    -0.082 Cl
ENDBRANCH   4  10
BRANCH   3  17
ATOM     17  N13 CP6 A1240       2.875  18.159 -24.056  0.00  0.00    -0.107 N 
ATOM     18  H   CP6 A1240       3.034  18.811 -24.776  0.00  0.00    +0.000 HD
ATOM     19  H   CP6 A1240       2.196  18.342 -23.367  0.00  0.00    +0.000 HD
ENDBRANCH   3  17
BRANCH   5  20
ATOM     20  C15 CP6 A1240       7.110  15.646 -23.107  0.00  0.00    +0.046 C 
ATOM     21  C16 CP6 A1240       7.314  15.156 -21.680  0.00  0.00    +0.007 C 
ENDBRANCH   5  20
TORSDOF 3
ENDMDL
MODEL 5
REMARK VINA RESULT:    -7.118      4.281      5.680
REMARK INTER + INTRA:          -8.729
REMARK INTER:                  -8.293
REMARK INTRA:                  -0.436
REMARK UNBOUND:                -0.571
REMARK  Name = /mnt/c/Personal/tickdock/data/docking/counterdock_calibration/2BL9_lig_raw.pdb
REMARK  4 active torsions:
REMARK  status: ('A' for Active; 'I' for Inactive)
REMARK    1  A    between atoms: C3_3  and  N13_13
REMARK    2  A    between atoms: C4_4  and  C7_7
REMARK    3  A    between atoms: C5_5  and  C15_15
REMARK    4  A    between atoms: C15_15  and  C16_16
REMARK                            x       y       z     vdW  Elec       q    Type
REMARK                         _______ _______ _______ _____ _____    ______ ____
ROOT
ATOM      1  N1  CP6 A1240       9.006  22.370 -25.220  0.00  0.00    -0.193 NA
ATOM      2  C2  CP6 A1240       9.319  23.135 -24.113  0.00  0.00    +0.258 A 
ATOM      3  C3  CP6 A1240       7.931  21.445 -25.138  0.00  0.00    +0.174 A 
ATOM      4  C4  CP6 A1240       7.138  21.256 -23.891  0.00  0.00    +0.049 A 
ATOM      5  C5  CP6 A1240       7.584  22.170 -22.779  0.00  0.00    +0.065 A 
ATOM      6  N6  CP6 A1240       8.622  23.056 -22.911  0.00  0.00    -0.215 NA
ATOM      7  N14 CP6 A1240      10.394  24.032 -24.185  0.00  0.00    -0.086 N 
ATOM      8  H   CP6 A1240      10.910  24.114 -25.019  0.00  0.00    +0.000 HD
ATOM      9  H   CP6 A1240      10.632  24.579 -23.402  0.00  0.00    +0.000 HD
ENDROOT
BRANCH   4  10
ATOM     10  C7  CP6 A1240       6.044  20.281 -23.770  0.00  0.00    +0.004 A 
ATOM     11  C8  CP6 A1240       6.300  18.861 -23.489  0.00  0.00    +0.001 A 
ATOM     12  C9  CP6 A1240       5.248  17.884 -23.347  0.00  0.00    +0.011 A 
ATOM     13  C10 CP6 A1240       3.925  18.277 -23.480  0.00  0.00    +0.058 A 
ATOM     14  C11 CP6 A1240       3.601  19.691 -23.755  0.00  0.00    +0.011 A 
ATOM     15  C12 CP6 A1240       4.668  20.651 -23.891  0.00  0.00    +0.001 A 
ATOM     16 CL1  CP6 A1240       2.663  17.222 -23.356  0.00  0.00    -0.082 Cl
ENDBRANCH   4  10
BRANCH   3  17
ATOM     17  N13 CP6 A1240       7.610  20.706 -26.199  0.00  0.00    -0.107 N 
ATOM     18  H   CP6 A1240       6.887  20.041 -26.135  0.00  0.00    +0.000 HD
ATOM     19  H   CP6 A1240       8.096  20.824 -27.047  0.00  0.00    +0.000 HD
ENDBRANCH   3  17
BRANCH   5  20
ATOM     20  C15 CP6 A1240       6.873  22.132 -21.448  0.00  0.00    +0.046 C 
ATOM     21  C16 CP6 A1240       7.774  21.945 -20.235  0.00  0.00    +0.007 C 
ENDBRANCH   5  20
TORSDOF 3
ENDMDL
MODEL 6
REMARK VINA RESULT:    -7.108      3.138      4.828
REMARK INTER + INTRA:          -8.718
REMARK INTER:                  -8.402
REMARK INTRA:                  -0.316
REMARK UNBOUND:                -0.571
REMARK  Name = /mnt/c/Personal/tickdock/data/docking/counterdock_calibration/2BL9_lig_raw.pdb
REMARK  4 active torsions:
REMARK  status: ('A' for Active; 'I' for Inactive)
REMARK    1  A    between atoms: C3_3  and  N13_13
REMARK    2  A    between atoms: C4_4  and  C7_7
REMARK    3  A    between atoms: C5_5  and  C15_15
REMARK    4  A    between atoms: C15_15  and  C16_16
REMARK                            x       y       z     vdW  Elec       q    Type
REMARK                         _______ _______ _______ _____ _____    ______ ____
ROOT
ATOM      1  N1  CP6 A1240       8.270  23.735 -27.689  0.00  0.00    -0.193 NA
ATOM      2  C2  CP6 A1240       8.285  25.011 -27.159  0.00  0.00    +0.258 A 
ATOM      3  C3  CP6 A1240       7.651  22.690 -26.953  0.00  0.00    +0.174 A 
ATOM      4  C4  CP6 A1240       7.030  22.916 -25.618  0.00  0.00    +0.049 A 
ATOM      5  C5  CP6 A1240       7.109  24.357 -25.182  0.00  0.00    +0.065 A 
ATOM      6  N6  CP6 A1240       7.708  25.334 -25.934  0.00  0.00    -0.215 NA
ATOM      7  N14 CP6 A1240       8.915  26.039 -27.873  0.00  0.00    -0.086 N 
ATOM      8  H   CP6 A1240       9.335  25.848 -28.743  0.00  0.00    +0.000 HD
ATOM      9  H   CP6 A1240       8.939  26.952 -27.505  0.00  0.00    +0.000 HD
ENDROOT
BRANCH   4  10
ATOM     10  C7  CP6 A1240       6.414  21.845 -24.821  0.00  0.00    +0.004 A 
ATOM     11  C8  CP6 A1240       4.956  21.739 -24.663  0.00  0.00    +0.001 A 
ATOM     12  C9  CP6 A1240       4.320  20.690 -23.903  0.00  0.00    +0.011 A 
ATOM     13  C10 CP6 A1240       5.099  19.726 -23.280  0.00  0.00    +0.058 A 
ATOM     14  C11 CP6 A1240       6.570  19.773 -23.408  0.00  0.00    +0.011 A 
ATOM     15  C12 CP6 A1240       7.183  20.828 -24.174  0.00  0.00    +0.001 A 
ATOM     16 CL1  CP6 A1240       4.456  18.507 -22.374  0.00  0.00    -0.082 Cl
ENDBRANCH   4  10
BRANCH   3  17
ATOM     17  N13 CP6 A1240       7.619  21.455 -27.454  0.00  0.00    -0.107 N 
ATOM     18  H   CP6 A1240       7.431  21.316 -28.410  0.00  0.00    +0.000 HD
ATOM     19  H   CP6 A1240       7.785  20.682 -26.867  0.00  0.00    +0.000 HD
ENDBRANCH   3  17
BRANCH   5  20
ATOM     20  C15 CP6 A1240       6.506  24.774 -23.861  0.00  0.00    +0.046 C 
ATOM     21  C16 CP6 A1240       5.537  25.945 -23.930  0.00  0.00    +0.007 C 
ENDBRANCH   5  20
TORSDOF 3
ENDMDL
MODEL 7
REMARK VINA RESULT:    -7.036      2.943      4.790
REMARK INTER + INTRA:          -8.635
REMARK INTER:                  -8.151
REMARK INTRA:                  -0.483
REMARK UNBOUND:                -0.571
REMARK  Name = /mnt/c/Personal/tickdock/data/docking/counterdock_calibration/2BL9_lig_raw.pdb
REMARK  4 active torsions:
REMARK  status: ('A' for Active; 'I' for Inactive)
REMARK    1  A    between atoms: C3_3  and  N13_13
REMARK    2  A    between atoms: C4_4  and  C7_7
REMARK    3  A    between atoms: C5_5  and  C15_15
REMARK    4  A    between atoms: C15_15  and  C16_16
REMARK                            x       y       z     vdW  Elec       q    Type
REMARK                         _______ _______ _______ _____ _____    ______ ____
ROOT
ATOM      1  N1  CP6 A1240       6.582  25.579 -24.860  0.00  0.00    -0.193 NA
ATOM      2  C2  CP6 A1240       7.577  25.422 -25.806  0.00  0.00    +0.258 A 
ATOM      3  C3  CP6 A1240       6.076  24.429 -24.194  0.00  0.00    +0.174 A 
ATOM      4  C4  CP6 A1240       6.568  23.056 -24.494  0.00  0.00    +0.049 A 
ATOM      5  C5  CP6 A1240       7.662  23.048 -25.531  0.00  0.00    +0.065 A 
ATOM      6  N6  CP6 A1240       8.125  24.187 -26.138  0.00  0.00    -0.215 NA
ATOM      7  N14 CP6 A1240       8.061  26.552 -26.479  0.00  0.00    -0.086 N 
ATOM      8  H   CP6 A1240       7.697  27.442 -26.271  0.00  0.00    +0.000 HD
ATOM      9  H   CP6 A1240       8.765  26.455 -27.160  0.00  0.00    +0.000 HD
ENDROOT
BRANCH   4  10
ATOM     10  C7  CP6 A1240       6.038  21.848 -23.845  0.00  0.00    +0.004 A 
ATOM     11  C8  CP6 A1240       6.725  21.212 -22.711  0.00  0.00    +0.001 A 
ATOM     12  C9  CP6 A1240       6.221  20.038 -22.043  0.00  0.00    +0.011 A 
ATOM     13  C10 CP6 A1240       5.035  19.460 -22.472  0.00  0.00    +0.058 A 
ATOM     14  C11 CP6 A1240       4.293  20.055 -23.601  0.00  0.00    +0.011 A 
ATOM     15  C12 CP6 A1240       4.814  21.231 -24.253  0.00  0.00    +0.001 A 
ATOM     16 CL1  CP6 A1240       4.401  18.105 -21.779  0.00  0.00    -0.082 Cl
ENDBRANCH   4  10
BRANCH   3  17
ATOM     17  N13 CP6 A1240       5.123  24.563 -23.273  0.00  0.00    -0.107 N 
ATOM     18  H   CP6 A1240       4.290  24.043 -23.347  0.00  0.00    +0.000 HD
ATOM     19  H   CP6 A1240       5.252  25.181 -22.517  0.00  0.00    +0.000 HD
ENDBRANCH   3  17
BRANCH   5  20
ATOM     20  C15 CP6 A1240       8.297  21.740 -25.940  0.00  0.00    +0.046 C 
ATOM     21  C16 CP6 A1240       7.791  21.154 -27.250  0.00  0.00    +0.007 C 
ENDBRANCH   5  20
TORSDOF 3
ENDMDL
MODEL 8
REMARK VINA RESULT:    -7.010      7.492      9.134
REMARK INTER + INTRA:          -8.605
REMARK INTER:                  -8.186
REMARK INTRA:                  -0.419
REMARK UNBOUND:                -0.571
REMARK  Name = /mnt/c/Personal/tickdock/data/docking/counterdock_calibration/2BL9_lig_raw.pdb
REMARK  4 active torsions:
REMARK  status: ('A' for Active; 'I' for Inactive)
REMARK    1  A    between atoms: C3_3  and  N13_13
REMARK    2  A    between atoms: C4_4  and  C7_7
REMARK    3  A    between atoms: C5_5  and  C15_15
REMARK    4  A    between atoms: C15_15  and  C16_16
REMARK                            x       y       z     vdW  Elec       q    Type
REMARK                         _______ _______ _______ _____ _____    ______ ____
ROOT
ATOM      1  N1  CP6 A1240       5.763  14.171 -24.227  0.00  0.00    -0.193 NA
ATOM      2  C2  CP6 A1240       4.444  14.044 -24.622  0.00  0.00    +0.258 A 
ATOM      3  C3  CP6 A1240       6.221  15.429 -23.751  0.00  0.00    +0.174 A 
ATOM      4  C4  CP6 A1240       5.334  16.624 -23.678  0.00  0.00    +0.049 A 
ATOM      5  C5  CP6 A1240       3.925  16.324 -24.123  0.00  0.00    +0.065 A 
ATOM      6  N6  CP6 A1240       3.528  15.089 -24.565  0.00  0.00    -0.215 NA
ATOM      7  N14 CP6 A1240       3.997  12.810 -25.113  0.00  0.00    -0.086 N 
ATOM      8  H   CP6 A1240       4.617  12.048 -25.168  0.00  0.00    +0.000 HD
ATOM      9  H   CP6 A1240       3.062  12.705 -25.403  0.00  0.00    +0.000 HD
ENDROOT
BRANCH   4  10
ATOM     10  C7  CP6 A1240       5.793  17.944 -23.222  0.00  0.00    +0.004 A 
ATOM     11  C8  CP6 A1240       6.458  18.889 -24.130  0.00  0.00    +0.001 A 
ATOM     12  C9  CP6 A1240       6.903  20.198 -23.718  0.00  0.00    +0.011 A 
ATOM     13  C10 CP6 A1240       6.710  20.606 -22.407  0.00  0.00    +0.058 A 
ATOM     14  C11 CP6 A1240       6.041  19.706 -21.446  0.00  0.00    +0.011 A 
ATOM     15  C12 CP6 A1240       5.601  18.403 -21.881  0.00  0.00    +0.001 A 
ATOM     16 CL1  CP6 A1240       7.208  22.075 -21.846  0.00  0.00    -0.082 Cl
ENDBRANCH   4  10
BRANCH   3  17
ATOM     17  N13 CP6 A1240       7.487  15.568 -23.358  0.00  0.00    -0.107 N 
ATOM     18  H   CP6 A1240       7.786  15.170 -22.509  0.00  0.00    +0.000 HD
ATOM     19  H   CP6 A1240       8.124  16.069 -23.918  0.00  0.00    +0.000 HD
ENDBRANCH   3  17
BRANCH   5  20
ATOM     20  C15 CP6 A1240       2.882  17.416 -24.091  0.00  0.00    +0.046 C 
ATOM     21  C16 CP6 A1240       1.600  17.111 -24.852  0.00  0.00    +0.007 C 
ENDBRANCH   5  20
TORSDOF 3
ENDMDL
MODEL 9
REMARK VINA RESULT:    -6.400      4.051      5.527
REMARK INTER + INTRA:          -7.906
REMARK INTER:                  -7.910
REMARK INTRA:                   0.004
REMARK UNBOUND:                -0.571
REMARK  Name = /mnt/c/Personal/tickdock/data/docking/counterdock_calibration/2BL9_lig_raw.pdb
REMARK  4 active torsions:
REMARK  status: ('A' for Active; 'I' for Inactive)
REMARK    1  A    between atoms: C3_3  and  N13_13
REMARK    2  A    between atoms: C4_4  and  C7_7
REMARK    3  A    between atoms: C5_5  and  C15_15
REMARK    4  A    between atoms: C15_15  and  C16_16
REMARK                            x       y       z     vdW  Elec       q    Type
REMARK                         _______ _______ _______ _____ _____    ______ ____
ROOT
ATOM      1  N1  CP6 A1240       3.694  23.458 -24.178  0.00  0.00    -0.193 NA
ATOM      2  C2  CP6 A1240       4.785  24.240 -23.848  0.00  0.00    +0.258 A 
ATOM      3  C3  CP6 A1240       3.745  22.061 -23.926  0.00  0.00    +0.174 A 
ATOM      4  C4  CP6 A1240       4.942  21.403 -23.333  0.00  0.00    +0.049 A 
ATOM      5  C5  CP6 A1240       6.040  22.384 -23.011  0.00  0.00    +0.065 A 
ATOM      6  N6  CP6 A1240       5.939  23.728 -23.263  0.00  0.00    -0.215 NA
ATOM      7  N14 CP6 A1240       4.745  25.614 -24.117  0.00  0.00    -0.086 N 
ATOM      8  H   CP6 A1240       3.945  26.012 -24.530  0.00  0.00    +0.000 HD
ATOM      9  H   CP6 A1240       5.517  26.183 -23.893  0.00  0.00    +0.000 HD
ENDROOT
BRANCH   4  10
ATOM     10  C7  CP6 A1240       5.033  19.955 -23.094  0.00  0.00    +0.004 A 
ATOM     11  C8  CP6 A1240       6.124  19.144 -23.656  0.00  0.00    +0.001 A 
ATOM     12  C9  CP6 A1240       6.250  17.726 -23.426  0.00  0.00    +0.011 A 
ATOM     13  C10 CP6 A1240       5.311  17.071 -22.644  0.00  0.00    +0.058 A 
ATOM     14  C11 CP6 A1240       4.195  17.831 -22.044  0.00  0.00    +0.011 A 
ATOM     15  C12 CP6 A1240       4.090  19.249 -22.285  0.00  0.00    +0.001 A 
ATOM     16 CL1  CP6 A1240       5.367  15.450 -22.349  0.00  0.00    -0.082 Cl
ENDBRANCH   4  10
BRANCH   3  17
ATOM     17  N13 CP6 A1240       2.698  21.294 -24.230  0.00  0.00    -0.107 N 
ATOM     18  H   CP6 A1240       1.975  21.165 -23.575  0.00  0.00    +0.000 HD
ATOM     19  H   CP6 A1240       2.649  20.855 -25.110  0.00  0.00    +0.000 HD
ENDBRANCH   3  17
BRANCH   5  20
ATOM     20  C15 CP6 A1240       7.321  21.894 -22.380  0.00  0.00    +0.046 C 
ATOM     21  C16 CP6 A1240       7.409  22.067 -20.870  0.00  0.00    +0.007 C 
ENDBRANCH   5  20
TORSDOF 3
ENDMDL
