MODEL 1
REMARK VINA RESULT:    -9.508      0.000      0.000
REMARK INTER + INTRA:         -14.854
REMARK INTER:                 -14.510
REMARK INTRA:                  -0.343
REMARK UNBOUND:                -0.343
REMARK  Name = /mnt/c/Personal/tickdock/data/docking/counterdock_calibration/1RG7_lig_raw.pdb
REMARK  10 active torsions:
REMARK  status: ('A' for Active; 'I' for Inactive)
REMARK    1  A    between atoms: C_9  and  C_13
REMARK    2  A    between atoms: C_13  and  N_14
REMARK    3  A    between atoms: N_14  and  C_15
REMARK    4  A    between atoms: N_14  and  C_19
REMARK    5  A    between atoms: C_16  and  C_22
REMARK    6  A    between atoms: N_24  and  CA_25
REMARK    7  A    between atoms: CA_25  and  C_26
REMARK    8  A    between atoms: CA_25  and  CB_29
REMARK    9  A    between atoms: CB_29  and  CG_30
REMARK   10  A    between atoms: CG_30  and  CD_31
REMARK                            x       y       z     vdW  Elec       q    Type
REMARK                         _______ _______ _______ _____ _____    ______ ____
ROOT
ATOM      1  N   UNK A   0     -25.829 -13.557  43.329  0.00  0.00    -0.304 N 
ATOM      2  C   UNK A   0     -24.570 -12.896  43.761  0.00  0.00    +0.112 C 
ENDROOT
BRANCH   1   6
ATOM      3  C   UNK A   0     -29.389 -11.639  42.297  0.00  0.00    +0.055 A 
ATOM      4  C   UNK A   0     -29.215 -13.065  42.141  0.00  0.00    +0.006 A 
ATOM      5  C   UNK A   0     -28.024 -13.651  42.493  0.00  0.00    +0.015 A 
ATOM      6  C   UNK A   0     -26.997 -12.842  43.005  0.00  0.00    +0.048 A 
ATOM      7  C   UNK A   0     -27.146 -11.484  43.174  0.00  0.00    +0.015 A 
ATOM      8  C   UNK A   0     -28.365 -10.860  42.820  0.00  0.00    +0.006 A 
BRANCH   3   9
ATOM      9  C   UNK A   0     -30.599 -10.965  41.972  0.00  0.00    +0.265 C 
ATOM     10  O   UNK A   0     -30.652  -9.773  41.613  0.00  0.00    -0.268 OA
ATOM     11  N   GLU A   1     -31.667 -11.690  41.803  0.00  0.00    -0.192 N 
ATOM     12  H   GLU A   1     -31.619 -12.671  41.734  0.00  0.00    +0.000 HD
BRANCH  11  13
ATOM     13  CA  GLU A   1     -32.974 -10.963  41.720  0.00  0.00    +0.199 C 
BRANCH  13  14
ATOM     14  C   GLU A   1     -34.128 -11.808  42.127  0.00  0.00    +0.384 C 
ATOM     15  OXT GLU A   1     -34.952 -11.352  42.958  0.00  0.00    -0.244 OA
ATOM     16  O   GLU A   1     -34.133 -12.987  41.649  0.00  0.00    -0.244 OA
ENDBRANCH  13  14
BRANCH  13  17
ATOM     17  CB  GLU A   1     -33.280 -10.743  40.233  0.00  0.00    +0.045 C 
BRANCH  17  18
ATOM     18  CG  GLU A   1     -33.871  -9.280  40.040  0.00  0.00    +0.116 C 
BRANCH  18  19
ATOM     19  CD  GLU A   1     -34.928  -9.378  38.941  0.00  0.00    +0.365 C 
ATOM     20  OE1 GLU A   1     -35.968  -9.960  39.391  0.00  0.00    -0.246 OA
ATOM     21  OE2 GLU A   1     -34.738  -8.810  37.834  0.00  0.00    -0.246 OA
ENDBRANCH  18  19
ENDBRANCH  17  18
ENDBRANCH  13  17
ENDBRANCH  11  13
ENDBRANCH   3   9
ENDBRANCH   1   6
BRANCH   1  22
ATOM     22  C   UNK A   0     -25.848 -15.027  43.359  0.00  0.00    +0.121 C 
BRANCH  22  31
ATOM     23  N   UNK A   0     -25.052 -17.022  48.352  0.00  0.00    -0.348 NA
ATOM     24  C   UNK A   0     -24.862 -18.302  48.539  0.00  0.00    +0.302 C 
ATOM     25  N   UNK A   0     -24.667 -18.725  49.722  0.00  0.00    -0.076 N 
ATOM     26  N   UNK A   0     -24.850 -19.187  47.405  0.00  0.00    -0.145 N 
ATOM     27  C   UNK A   0     -25.024 -18.785  46.127  0.00  0.00    +0.198 C 
ATOM     28  N   UNK A   0     -25.008 -19.622  45.147  0.00  0.00    -0.128 N 
ATOM     29  C   UNK A   0     -25.204 -17.345  45.982  0.00  0.00    +0.160 C 
ATOM     30  N   UNK A   0     -25.375 -16.881  44.775  0.00  0.00    -0.258 NA
ATOM     31  C   UNK A   0     -25.613 -15.554  44.704  0.00  0.00    +0.164 C 
ATOM     32  C   UNK A   0     -25.662 -14.785  45.873  0.00  0.00    +0.101 C 
ATOM     33  N   UNK A   0     -25.480 -15.221  47.076  0.00  0.00    -0.216 NA
ATOM     34  C   UNK A   0     -25.234 -16.543  47.079  0.00  0.00    +0.237 C 
ATOM     35  H   UNK A   0     -24.522 -19.685  49.884  0.00  0.00    +0.000 HD
ATOM     36  H   UNK A   0     -24.660 -18.092  50.476  0.00  0.00    +0.000 HD
ATOM     37  H   UNK A   0     -24.705 -20.146  47.571  0.00  0.00    +0.000 HD
ATOM     38  H   UNK A   0     -25.138 -19.303  44.226  0.00  0.00    +0.000 HD
ATOM     39  H   UNK A   0     -24.866 -20.580  45.321  0.00  0.00    +0.000 HD
ENDBRANCH  22  31
ENDBRANCH   1  22
TORSDOF 9
ENDMDL
MODEL 2
REMARK VINA RESULT:    -9.424      2.096      3.828
REMARK INTER + INTRA:         -14.725
REMARK INTER:                 -13.509
REMARK INTRA:                  -1.216
REMARK UNBOUND:                -0.343
REMARK  Name = /mnt/c/Personal/tickdock/data/docking/counterdock_calibration/1RG7_lig_raw.pdb
REMARK  10 active torsions:
REMARK  status: ('A' for Active; 'I' for Inactive)
REMARK    1  A    between atoms: C_9  and  C_13
REMARK    2  A    between atoms: C_13  and  N_14
REMARK    3  A    between atoms: N_14  and  C_15
REMARK    4  A    between atoms: N_14  and  C_19
REMARK    5  A    between atoms: C_16  and  C_22
REMARK    6  A    between atoms: N_24  and  CA_25
REMARK    7  A    between atoms: CA_25  and  C_26
REMARK    8  A    between atoms: CA_25  and  CB_29
REMARK    9  A    between atoms: CB_29  and  CG_30
REMARK   10  A    between atoms: CG_30  and  CD_31
REMARK                            x       y       z     vdW  Elec       q    Type
REMARK                         _______ _______ _______ _____ _____    ______ ____
ROOT
ATOM      1  N   UNK A   0     -28.365 -11.753  42.563  0.00  0.00    -0.304 N 
ATOM      2  C   UNK A   0     -27.652 -10.726  43.368  0.00  0.00    +0.112 C 
ENDROOT
BRANCH   1   6
ATOM      3  C   UNK A   0     -32.349 -11.216  41.438  0.00  0.00    +0.055 A 
ATOM      4  C   UNK A   0     -31.336 -10.220  41.170  0.00  0.00    +0.006 A 
ATOM      5  C   UNK A   0     -30.039 -10.441  41.561  0.00  0.00    +0.015 A 
ATOM      6  C   UNK A   0     -29.724 -11.643  42.214  0.00  0.00    +0.048 A 
ATOM      7  C   UNK A   0     -30.670 -12.611  42.468  0.00  0.00    +0.015 A 
ATOM      8  C   UNK A   0     -32.012 -12.405  42.072  0.00  0.00    +0.006 A 
BRANCH   3   9
ATOM      9  C   UNK A   0     -33.709 -11.066  41.047  0.00  0.00    +0.265 C 
ATOM     10  O   UNK A   0     -34.632 -11.792  41.463  0.00  0.00    -0.268 OA
ATOM     11  N   GLU A   1     -34.039  -9.972  40.423  0.00  0.00    -0.192 N 
ATOM     12  H   GLU A   1     -33.425  -9.204  40.368  0.00  0.00    +0.000 HD
BRANCH  11  13
ATOM     13  CA  GLU A   1     -35.397  -9.936  39.792  0.00  0.00    +0.199 C 
BRANCH  13  14
ATOM     14  C   GLU A   1     -35.354  -9.550  38.357  0.00  0.00    +0.384 C 
ATOM     15  OXT GLU A   1     -34.410  -8.828  37.949  0.00  0.00    -0.244 OA
ATOM     16  O   GLU A   1     -36.354  -9.923  37.664  0.00  0.00    -0.244 OA
ENDBRANCH  13  14
BRANCH  13  17
ATOM     17  CB  GLU A   1     -36.150  -8.743  40.396  0.00  0.00    +0.045 C 
BRANCH  17  18
ATOM     18  CG  GLU A   1     -37.147  -9.276  41.512  0.00  0.00    +0.116 C 
BRANCH  18  19
ATOM     19  CD  GLU A   1     -38.179 -10.147  40.795  0.00  0.00    +0.365 C 
ATOM     20  OE1 GLU A   1     -38.198 -11.310  41.314  0.00  0.00    -0.246 OA
ATOM     21  OE2 GLU A   1     -38.935  -9.639  39.926  0.00  0.00    -0.246 OA
ENDBRANCH  18  19
ENDBRANCH  17  18
ENDBRANCH  13  17
ENDBRANCH  11  13
ENDBRANCH   3   9
ENDBRANCH   1   6
BRANCH   1  22
ATOM     22  C   UNK A   0     -27.614 -12.971  42.228  0.00  0.00    +0.121 C 
BRANCH  22  31
ATOM     23  N   UNK A   0     -25.769 -15.438  46.706  0.00  0.00    -0.348 NA
ATOM     24  C   UNK A   0     -26.598 -15.958  47.573  0.00  0.00    +0.302 C 
ATOM     25  N   UNK A   0     -26.124 -16.538  48.601  0.00  0.00    -0.076 N 
ATOM     26  N   UNK A   0     -28.013 -15.887  47.327  0.00  0.00    -0.145 N 
ATOM     27  C   UNK A   0     -28.567 -15.309  46.239  0.00  0.00    +0.198 C 
ATOM     28  N   UNK A   0     -29.843 -15.269  46.070  0.00  0.00    -0.128 N 
ATOM     29  C   UNK A   0     -27.591 -14.772  45.298  0.00  0.00    +0.160 C 
ATOM     30  N   UNK A   0     -28.050 -14.200  44.220  0.00  0.00    -0.258 NA
ATOM     31  C   UNK A   0     -27.109 -13.653  43.421  0.00  0.00    +0.164 C 
ATOM     32  C   UNK A   0     -25.757 -13.725  43.776  0.00  0.00    +0.101 C 
ATOM     33  N   UNK A   0     -25.278 -14.300  44.831  0.00  0.00    -0.216 NA
ATOM     34  C   UNK A   0     -26.261 -14.836  45.576  0.00  0.00    +0.237 C 
ATOM     35  H   UNK A   0     -26.731 -16.936  49.266  0.00  0.00    +0.000 HD
ATOM     36  H   UNK A   0     -25.149 -16.589  48.732  0.00  0.00    +0.000 HD
ATOM     37  H   UNK A   0     -28.618 -16.286  47.995  0.00  0.00    +0.000 HD
ATOM     38  H   UNK A   0     -30.220 -14.841  45.268  0.00  0.00    +0.000 HD
ATOM     39  H   UNK A   0     -30.441 -15.667  46.743  0.00  0.00    +0.000 HD
ENDBRANCH  22  31
ENDBRANCH   1  22
TORSDOF 9
ENDMDL
MODEL 3
REMARK VINA RESULT:    -9.315      2.457      4.191
REMARK INTER + INTRA:         -14.559
REMARK INTER:                 -13.178
REMARK INTRA:                  -1.381
REMARK UNBOUND:                -0.343
REMARK  Name = /mnt/c/Personal/tickdock/data/docking/counterdock_calibration/1RG7_lig_raw.pdb
REMARK  10 active torsions:
REMARK  status: ('A' for Active; 'I' for Inactive)
REMARK    1  A    between atoms: C_9  and  C_13
REMARK    2  A    between atoms: C_13  and  N_14
REMARK    3  A    between atoms: N_14  and  C_15
REMARK    4  A    between atoms: N_14  and  C_19
REMARK    5  A    between atoms: C_16  and  C_22
REMARK    6  A    between atoms: N_24  and  CA_25
REMARK    7  A    between atoms: CA_25  and  C_26
REMARK    8  A    between atoms: CA_25  and  CB_29
REMARK    9  A    between atoms: CB_29  and  CG_30
REMARK   10  A    between atoms: CG_30  and  CD_31
REMARK                            x       y       z     vdW  Elec       q    Type
REMARK                         _______ _______ _______ _____ _____    ______ ____
ROOT
ATOM      1  N   UNK A   0     -26.378 -12.296  43.097  0.00  0.00    -0.304 N 
ATOM      2  C   UNK A   0     -25.460 -11.748  42.064  0.00  0.00    +0.112 C 
ENDROOT
BRANCH   1   6
ATOM      3  C   UNK A   0     -30.520 -12.450  42.609  0.00  0.00    +0.055 A 
ATOM      4  C   UNK A   0     -29.860 -11.306  43.197  0.00  0.00    +0.006 A 
ATOM      5  C   UNK A   0     -28.494 -11.303  43.338  0.00  0.00    +0.015 A 
ATOM      6  C   UNK A   0     -27.765 -12.420  42.900  0.00  0.00    +0.048 A 
ATOM      7  C   UNK A   0     -28.372 -13.514  42.325  0.00  0.00    +0.015 A 
ATOM      8  C   UNK A   0     -29.778 -13.537  42.168  0.00  0.00    +0.006 A 
BRANCH   3   9
ATOM      9  C   UNK A   0     -31.928 -12.518  42.413  0.00  0.00    +0.265 C 
ATOM     10  O   UNK A   0     -32.472 -12.510  41.293  0.00  0.00    -0.268 OA
ATOM     11  N   GLU A   1     -32.663 -12.854  43.435  0.00  0.00    -0.192 N 
ATOM     12  H   GLU A   1     -32.264 -13.210  44.262  0.00  0.00    +0.000 HD
BRANCH  11  13
ATOM     13  CA  GLU A   1     -34.142 -12.673  43.293  0.00  0.00    +0.199 C 
BRANCH  13  14
ATOM     14  C   GLU A   1     -34.587 -11.295  43.629  0.00  0.00    +0.384 C 
ATOM     15  OXT GLU A   1     -34.656 -10.954  44.836  0.00  0.00    -0.244 OA
ATOM     16  O   GLU A   1     -34.955 -10.587  42.638  0.00  0.00    -0.244 OA
ENDBRANCH  13  14
BRANCH  13  17
ATOM     17  CB  GLU A   1     -34.811 -13.480  44.414  0.00  0.00    +0.045 C 
BRANCH  17  18
ATOM     18  CG  GLU A   1     -33.698 -14.315  45.180  0.00  0.00    +0.116 C 
BRANCH  18  19
ATOM     19  CD  GLU A   1     -33.601 -13.725  46.587  0.00  0.00    +0.365 C 
ATOM     20  OE1 GLU A   1     -32.588 -12.957  46.665  0.00  0.00    -0.246 OA
ATOM     21  OE2 GLU A   1     -34.522 -13.931  47.420  0.00  0.00    -0.246 OA
ENDBRANCH  18  19
ENDBRANCH  17  18
ENDBRANCH  13  17
ENDBRANCH  11  13
ENDBRANCH   3   9
ENDBRANCH   1   6
BRANCH   1  22
ATOM     22  C   UNK A   0     -25.787 -12.611  44.406  0.00  0.00    +0.121 C 
BRANCH  22  31
ATOM     23  N   UNK A   0     -26.342 -17.840  45.781  0.00  0.00    -0.348 NA
ATOM     24  C   UNK A   0     -27.378 -18.246  46.468  0.00  0.00    +0.302 C 
ATOM     25  N   UNK A   0     -27.475 -19.480  46.757  0.00  0.00    -0.076 N 
ATOM     26  N   UNK A   0     -28.388 -17.295  46.849  0.00  0.00    -0.145 N 
ATOM     27  C   UNK A   0     -28.347 -15.980  46.543  0.00  0.00    +0.198 C 
ATOM     28  N   UNK A   0     -29.278 -15.170  46.912  0.00  0.00    -0.128 N 
ATOM     29  C   UNK A   0     -27.182 -15.595  45.754  0.00  0.00    +0.160 C 
ATOM     30  N   UNK A   0     -27.074 -14.341  45.417  0.00  0.00    -0.258 NA
ATOM     31  C   UNK A   0     -25.941 -14.025  44.754  0.00  0.00    +0.164 C 
ATOM     32  C   UNK A   0     -24.988 -15.013  44.480  0.00  0.00    +0.101 C 
ATOM     33  N   UNK A   0     -25.081 -16.265  44.791  0.00  0.00    -0.216 NA
ATOM     34  C   UNK A   0     -26.235 -16.518  45.434  0.00  0.00    +0.237 C 
ATOM     35  H   UNK A   0     -28.248 -19.805  47.274  0.00  0.00    +0.000 HD
ATOM     36  H   UNK A   0     -26.778 -20.111  46.465  0.00  0.00    +0.000 HD
ATOM     37  H   UNK A   0     -29.159 -17.624  47.365  0.00  0.00    +0.000 HD
ATOM     38  H   UNK A   0     -29.224 -14.217  46.676  0.00  0.00    +0.000 HD
ATOM     39  H   UNK A   0     -30.044 -15.506  47.431  0.00  0.00    +0.000 HD
ENDBRANCH  22  31
ENDBRANCH   1  22
TORSDOF 9
ENDMDL
MODEL 4
REMARK VINA RESULT:    -9.280      2.500      4.593
REMARK INTER + INTRA:         -14.506
REMARK INTER:                 -13.770
REMARK INTRA:                  -0.736
REMARK UNBOUND:                -0.343
REMARK  Name = /mnt/c/Personal/tickdock/data/docking/counterdock_calibration/1RG7_lig_raw.pdb
REMARK  10 active torsions:
REMARK  status: ('A' for Active; 'I' for Inactive)
REMARK    1  A    between atoms: C_9  and  C_13
REMARK    2  A    between atoms: C_13  and  N_14
REMARK    3  A    between atoms: N_14  and  C_15
REMARK    4  A    between atoms: N_14  and  C_19
REMARK    5  A    between atoms: C_16  and  C_22
REMARK    6  A    between atoms: N_24  and  CA_25
REMARK    7  A    between atoms: CA_25  and  C_26
REMARK    8  A    between atoms: CA_25  and  CB_29
REMARK    9  A    between atoms: CB_29  and  CG_30
REMARK   10  A    between atoms: CG_30  and  CD_31
REMARK                            x       y       z     vdW  Elec       q    Type
REMARK                         _______ _______ _______ _____ _____    ______ ____
ROOT
ATOM      1  N   UNK A   0     -29.671 -11.956  42.407  0.00  0.00    -0.304 N 
ATOM      2  C   UNK A   0     -28.769 -11.000  43.101  0.00  0.00    +0.112 C 
ENDROOT
BRANCH   1   6
ATOM      3  C   UNK A   0     -33.521 -10.834  41.250  0.00  0.00    +0.055 A 
ATOM      4  C   UNK A   0     -32.351 -10.089  40.844  0.00  0.00    +0.006 A 
ATOM      5  C   UNK A   0     -31.105 -10.496  41.251  0.00  0.00    +0.015 A 
ATOM      6  C   UNK A   0     -30.997 -11.641  42.057  0.00  0.00    +0.048 A 
ATOM      7  C   UNK A   0     -32.096 -12.373  42.444  0.00  0.00    +0.015 A 
ATOM      8  C   UNK A   0     -33.389 -11.973  42.034  0.00  0.00    +0.006 A 
BRANCH   3   9
ATOM      9  C   UNK A   0     -34.842 -10.485  40.853  0.00  0.00    +0.265 C 
ATOM     10  O   UNK A   0     -35.862 -11.085  41.239  0.00  0.00    -0.268 OA
ATOM     11  N   GLU A   1     -35.008  -9.337  40.259  0.00  0.00    -0.192 N 
ATOM     12  H   GLU A   1     -34.293  -8.661  40.233  0.00  0.00    +0.000 HD
BRANCH  11  13
ATOM     13  CA  GLU A   1     -36.340  -9.094  39.619  0.00  0.00    +0.199 C 
BRANCH  13  14
ATOM     14  C   GLU A   1     -36.359  -9.455  38.176  0.00  0.00    +0.384 C 
ATOM     15  OXT GLU A   1     -37.345 -10.084  37.719  0.00  0.00    -0.244 OA
ATOM     16  O   GLU A   1     -35.302  -9.164  37.530  0.00  0.00    -0.244 OA
ENDBRANCH  13  14
BRANCH  13  17
ATOM     17  CB  GLU A   1     -36.540  -7.574  39.544  0.00  0.00    +0.045 C 
BRANCH  17  18
ATOM     18  CG  GLU A   1     -37.303  -7.091  40.851  0.00  0.00    +0.116 C 
BRANCH  18  19
ATOM     19  CD  GLU A   1     -37.289  -5.563  40.824  0.00  0.00    +0.365 C 
ATOM     20  OE1 GLU A   1     -37.252  -5.152  39.619  0.00  0.00    -0.246 OA
ATOM     21  OE2 GLU A   1     -37.433  -4.914  41.893  0.00  0.00    -0.246 OA
ENDBRANCH  18  19
ENDBRANCH  17  18
ENDBRANCH  13  17
ENDBRANCH  11  13
ENDBRANCH   3   9
ENDBRANCH   1   6
BRANCH   1  22
ATOM     22  C   UNK A   0     -29.155 -13.316  42.192  0.00  0.00    +0.121 C 
BRANCH  22  31
ATOM     23  N   UNK A   0     -27.893 -15.864  46.824  0.00  0.00    -0.348 NA
ATOM     24  C   UNK A   0     -26.688 -15.785  47.325  0.00  0.00    +0.302 C 
ATOM     25  N   UNK A   0     -26.439 -16.385  48.418  0.00  0.00    -0.076 N 
ATOM     26  N   UNK A   0     -25.692 -15.000  46.647  0.00  0.00    -0.145 N 
ATOM     27  C   UNK A   0     -25.913 -14.321  45.500  0.00  0.00    +0.198 C 
ATOM     28  N   UNK A   0     -24.982 -13.635  44.931  0.00  0.00    -0.128 N 
ATOM     29  C   UNK A   0     -27.281 -14.427  45.007  0.00  0.00    +0.160 C 
ATOM     30  N   UNK A   0     -27.571 -13.794  43.904  0.00  0.00    -0.258 NA
ATOM     31  C   UNK A   0     -28.828 -13.987  43.451  0.00  0.00    +0.164 C 
ATOM     32  C   UNK A   0     -29.709 -14.818  44.155  0.00  0.00    +0.101 C 
ATOM     33  N   UNK A   0     -29.448 -15.442  45.257  0.00  0.00    -0.216 NA
ATOM     34  C   UNK A   0     -28.189 -15.198  45.663  0.00  0.00    +0.237 C 
ATOM     35  H   UNK A   0     -25.538 -16.338  48.812  0.00  0.00    +0.000 HD
ATOM     36  H   UNK A   0     -27.147 -16.899  48.871  0.00  0.00    +0.000 HD
ATOM     37  H   UNK A   0     -24.792 -14.955  47.043  0.00  0.00    +0.000 HD
ATOM     38  H   UNK A   0     -25.170 -13.149  44.096  0.00  0.00    +0.000 HD
ATOM     39  H   UNK A   0     -24.084 -13.597  45.331  0.00  0.00    +0.000 HD
ENDBRANCH  22  31
ENDBRANCH   1  22
TORSDOF 9
ENDMDL
MODEL 5
REMARK VINA RESULT:    -9.195      1.746      2.563
REMARK INTER + INTRA:         -14.377
REMARK INTER:                 -13.747
REMARK INTRA:                  -0.630
REMARK UNBOUND:                -0.343
REMARK  Name = /mnt/c/Personal/tickdock/data/docking/counterdock_calibration/1RG7_lig_raw.pdb
REMARK  10 active torsions:
REMARK  status: ('A' for Active; 'I' for Inactive)
REMARK    1  A    between atoms: C_9  and  C_13
REMARK    2  A    between atoms: C_13  and  N_14
REMARK    3  A    between atoms: N_14  and  C_15
REMARK    4  A    between atoms: N_14  and  C_19
REMARK    5  A    between atoms: C_16  and  C_22
REMARK    6  A    between atoms: N_24  and  CA_25
REMARK    7  A    between atoms: CA_25  and  C_26
REMARK    8  A    between atoms: CA_25  and  CB_29
REMARK    9  A    between atoms: CB_29  and  CG_30
REMARK   10  A    between atoms: CG_30  and  CD_31
REMARK                            x       y       z     vdW  Elec       q    Type
REMARK                         _______ _______ _______ _____ _____    ______ ____
ROOT
ATOM      1  N   UNK A   0     -26.076 -12.342  43.298  0.00  0.00    -0.304 N 
ATOM      2  C   UNK A   0     -25.111 -12.053  42.206  0.00  0.00    +0.112 C 
ENDROOT
BRANCH   1   6
ATOM      3  C   UNK A   0     -30.166 -11.576  42.974  0.00  0.00    +0.055 A 
ATOM      4  C   UNK A   0     -29.238 -10.582  43.462  0.00  0.00    +0.006 A 
ATOM      5  C   UNK A   0     -27.901 -10.881  43.552  0.00  0.00    +0.015 A 
ATOM      6  C   UNK A   0     -27.465 -12.157  43.161  0.00  0.00    +0.048 A 
ATOM      7  C   UNK A   0     -28.330 -13.114  42.681  0.00  0.00    +0.015 A 
ATOM      8  C   UNK A   0     -29.711 -12.826  42.577  0.00  0.00    +0.006 A 
BRANCH   3   9
ATOM      9  C   UNK A   0     -31.562 -11.333  42.835  0.00  0.00    +0.265 C 
ATOM     10  O   UNK A   0     -32.354 -11.280  43.794  0.00  0.00    -0.268 OA
ATOM     11  N   GLU A   1     -31.986 -10.904  41.681  0.00  0.00    -0.192 N 
ATOM     12  H   GLU A   1     -31.363 -10.595  40.984  0.00  0.00    +0.000 HD
BRANCH  11  13
ATOM     13  CA  GLU A   1     -33.468 -10.900  41.464  0.00  0.00    +0.199 C 
BRANCH  13  14
ATOM     14  C   GLU A   1     -34.038 -12.270  41.364  0.00  0.00    +0.384 C 
ATOM     15  OXT GLU A   1     -35.142 -12.511  41.912  0.00  0.00    -0.244 OA
ATOM     16  O   GLU A   1     -33.292 -13.127  40.791  0.00  0.00    -0.244 OA
ENDBRANCH  13  14
BRANCH  13  17
ATOM     17  CB  GLU A   1     -33.720 -10.372  40.045  0.00  0.00    +0.045 C 
BRANCH  17  18
ATOM     18  CG  GLU A   1     -34.916  -9.326  40.091  0.00  0.00    +0.116 C 
BRANCH  18  19
ATOM     19  CD  GLU A   1     -35.444  -9.206  38.661  0.00  0.00    +0.365 C 
ATOM     20  OE1 GLU A   1     -34.480  -8.973  37.862  0.00  0.00    -0.246 OA
ATOM     21  OE2 GLU A   1     -36.653  -9.456  38.415  0.00  0.00    -0.246 OA
ENDBRANCH  18  19
ENDBRANCH  17  18
ENDBRANCH  13  17
ENDBRANCH  11  13
ENDBRANCH   3   9
ENDBRANCH   1   6
BRANCH   1  22
ATOM     22  C   UNK A   0     -25.509 -12.731  44.598  0.00  0.00    +0.121 C 
BRANCH  22  31
ATOM     23  N   UNK A   0     -26.461 -17.931  45.856  0.00  0.00    -0.348 NA
ATOM     24  C   UNK A   0     -27.535 -18.274  46.520  0.00  0.00    +0.302 C 
ATOM     25  N   UNK A   0     -27.726 -19.503  46.782  0.00  0.00    -0.076 N 
ATOM     26  N   UNK A   0     -28.479 -17.260  46.906  0.00  0.00    -0.145 N 
ATOM     27  C   UNK A   0     -28.338 -15.946  46.628  0.00  0.00    +0.198 C 
ATOM     28  N   UNK A   0     -29.214 -15.078  47.001  0.00  0.00    -0.128 N 
ATOM     29  C   UNK A   0     -27.137 -15.632  45.864  0.00  0.00    +0.160 C 
ATOM     30  N   UNK A   0     -26.933 -14.381  45.554  0.00  0.00    -0.258 NA
ATOM     31  C   UNK A   0     -25.770 -14.136  44.914  0.00  0.00    +0.164 C 
ATOM     32  C   UNK A   0     -24.887 -15.185  44.633  0.00  0.00    +0.101 C 
ATOM     33  N   UNK A   0     -25.075 -16.433  44.916  0.00  0.00    -0.216 NA
ATOM     34  C   UNK A   0     -26.254 -16.614  45.538  0.00  0.00    +0.237 C 
ATOM     35  H   UNK A   0     -28.528 -19.782  47.281  0.00  0.00    +0.000 HD
ATOM     36  H   UNK A   0     -27.072 -20.177  46.487  0.00  0.00    +0.000 HD
ATOM     37  H   UNK A   0     -29.280 -17.542  47.405  0.00  0.00    +0.000 HD
ATOM     38  H   UNK A   0     -29.087 -14.126  46.785  0.00  0.00    +0.000 HD
ATOM     39  H   UNK A   0     -30.010 -15.367  47.502  0.00  0.00    +0.000 HD
ENDBRANCH  22  31
ENDBRANCH   1  22
TORSDOF 9
ENDMDL
MODEL 6
REMARK VINA RESULT:    -8.884      4.234     10.779
REMARK INTER + INTRA:         -13.901
REMARK INTER:                 -12.708
REMARK INTRA:                  -1.193
REMARK UNBOUND:                -0.343
REMARK  Name = /mnt/c/Personal/tickdock/data/docking/counterdock_calibration/1RG7_lig_raw.pdb
REMARK  10 active torsions:
REMARK  status: ('A' for Active; 'I' for Inactive)
REMARK    1  A    between atoms: C_9  and  C_13
REMARK    2  A    between atoms: C_13  and  N_14
REMARK    3  A    between atoms: N_14  and  C_15
REMARK    4  A    between atoms: N_14  and  C_19
REMARK    5  A    between atoms: C_16  and  C_22
REMARK    6  A    between atoms: N_24  and  CA_25
REMARK    7  A    between atoms: CA_25  and  C_26
REMARK    8  A    between atoms: CA_25  and  CB_29
REMARK    9  A    between atoms: CB_29  and  CG_30
REMARK   10  A    between atoms: CG_30  and  CD_31
REMARK                            x       y       z     vdW  Elec       q    Type
REMARK                         _______ _______ _______ _____ _____    ______ ____
ROOT
ATOM      1  N   UNK A   0     -33.382 -12.285  44.780  0.00  0.00    -0.304 N 
ATOM      2  C   UNK A   0     -33.657 -11.225  45.785  0.00  0.00    +0.112 C 
ENDROOT
BRANCH   1   6
ATOM      3  C   UNK A   0     -29.507 -13.472  43.785  0.00  0.00    +0.055 A 
ATOM      4  C   UNK A   0     -30.098 -12.265  43.254  0.00  0.00    +0.006 A 
ATOM      5  C   UNK A   0     -31.378 -11.917  43.609  0.00  0.00    +0.015 A 
ATOM      6  C   UNK A   0     -32.085 -12.748  44.492  0.00  0.00    +0.048 A 
ATOM      7  C   UNK A   0     -31.536 -13.894  45.020  0.00  0.00    +0.015 A 
ATOM      8  C   UNK A   0     -30.219 -14.271  44.670  0.00  0.00    +0.006 A 
BRANCH   3   9
ATOM      9  C   UNK A   0     -28.181 -13.888  43.477  0.00  0.00    +0.265 C 
ATOM     10  O   UNK A   0     -27.729 -13.959  42.319  0.00  0.00    -0.268 OA
ATOM     11  N   GLU A   1     -27.328 -13.958  44.460  0.00  0.00    -0.192 N 
ATOM     12  H   GLU A   1     -27.532 -13.582  45.347  0.00  0.00    +0.000 HD
BRANCH  11  13
ATOM     13  CA  GLU A   1     -26.024 -14.637  44.177  0.00  0.00    +0.199 C 
BRANCH  13  14
ATOM     14  C   GLU A   1     -25.740 -15.750  45.121  0.00  0.00    +0.384 C 
ATOM     15  OXT GLU A   1     -26.371 -16.829  44.999  0.00  0.00    -0.244 OA
ATOM     16  O   GLU A   1     -24.919 -15.474  46.054  0.00  0.00    -0.244 OA
ENDBRANCH  13  14
BRANCH  13  17
ATOM     17  CB  GLU A   1     -24.907 -13.651  44.539  0.00  0.00    +0.045 C 
BRANCH  17  18
ATOM     18  CG  GLU A   1     -24.653 -12.685  43.303  0.00  0.00    +0.116 C 
BRANCH  18  19
ATOM     19  CD  GLU A   1     -25.242 -11.326  43.684  0.00  0.00    +0.365 C 
ATOM     20  OE1 GLU A   1     -25.396 -11.261  44.947  0.00  0.00    -0.246 OA
ATOM     21  OE2 GLU A   1     -25.382 -10.434  42.808  0.00  0.00    -0.246 OA
ENDBRANCH  18  19
ENDBRANCH  17  18
ENDBRANCH  13  17
ENDBRANCH  11  13
ENDBRANCH   3   9
ENDBRANCH   1   6
BRANCH   1  22
ATOM     22  C   UNK A   0     -34.529 -12.768  43.998  0.00  0.00    +0.121 C 
BRANCH  22  31
ATOM     23  N   UNK A   0     -36.672  -8.785  40.984  0.00  0.00    -0.348 NA
ATOM     24  C   UNK A   0     -35.993  -8.248  40.004  0.00  0.00    +0.302 C 
ATOM     25  N   UNK A   0     -36.537  -7.328  39.315  0.00  0.00    -0.076 N 
ATOM     26  N   UNK A   0     -34.669  -8.731  39.715  0.00  0.00    -0.145 N 
ATOM     27  C   UNK A   0     -34.058  -9.723  40.396  0.00  0.00    +0.198 C 
ATOM     28  N   UNK A   0     -32.867 -10.115  40.097  0.00  0.00    -0.128 N 
ATOM     29  C   UNK A   0     -34.875 -10.299  41.458  0.00  0.00    +0.160 C 
ATOM     30  N   UNK A   0     -34.353 -11.266  42.159  0.00  0.00    -0.258 NA
ATOM     31  C   UNK A   0     -35.121 -11.711  43.176  0.00  0.00    +0.164 C 
ATOM     32  C   UNK A   0     -36.375 -11.136  43.413  0.00  0.00    +0.101 C 
ATOM     33  N   UNK A   0     -36.919 -10.188  42.722  0.00  0.00    -0.216 NA
ATOM     34  C   UNK A   0     -36.113  -9.800  41.718  0.00  0.00    +0.237 C 
ATOM     35  H   UNK A   0     -36.042  -6.910  38.573  0.00  0.00    +0.000 HD
ATOM     36  H   UNK A   0     -37.453  -7.032  39.524  0.00  0.00    +0.000 HD
ATOM     37  H   UNK A   0     -34.177  -8.310  38.972  0.00  0.00    +0.000 HD
ATOM     38  H   UNK A   0     -32.445 -10.840  40.610  0.00  0.00    +0.000 HD
ATOM     39  H   UNK A   0     -32.381  -9.688  39.356  0.00  0.00    +0.000 HD
ENDBRANCH  22  31
ENDBRANCH   1  22
TORSDOF 9
ENDMDL
MODEL 7
REMARK VINA RESULT:    -8.878      3.662      5.139
REMARK INTER + INTRA:         -13.892
REMARK INTER:                 -13.000
REMARK INTRA:                  -0.891
REMARK UNBOUND:                -0.343
REMARK  Name = /mnt/c/Personal/tickdock/data/docking/counterdock_calibration/1RG7_lig_raw.pdb
REMARK  10 active torsions:
REMARK  status: ('A' for Active; 'I' for Inactive)
REMARK    1  A    between atoms: C_9  and  C_13
REMARK    2  A    between atoms: C_13  and  N_14
REMARK    3  A    between atoms: N_14  and  C_15
REMARK    4  A    between atoms: N_14  and  C_19
REMARK    5  A    between atoms: C_16  and  C_22
REMARK    6  A    between atoms: N_24  and  CA_25
REMARK    7  A    between atoms: CA_25  and  C_26
REMARK    8  A    between atoms: CA_25  and  CB_29
REMARK    9  A    between atoms: CB_29  and  CG_30
REMARK   10  A    between atoms: CG_30  and  CD_31
REMARK                            x       y       z     vdW  Elec       q    Type
REMARK                         _______ _______ _______ _____ _____    ______ ____
ROOT
ATOM      1  N   UNK A   0     -27.757 -13.408  43.127  0.00  0.00    -0.304 N 
ATOM      2  C   UNK A   0     -26.949 -12.202  42.812  0.00  0.00    +0.112 C 
ENDROOT
BRANCH   1   6
ATOM      3  C   UNK A   0     -31.637 -12.984  44.607  0.00  0.00    +0.055 A 
ATOM      4  C   UNK A   0     -30.975 -11.926  43.879  0.00  0.00    +0.006 A 
ATOM      5  C   UNK A   0     -29.697 -12.112  43.413  0.00  0.00    +0.015 A 
ATOM      6  C   UNK A   0     -29.060 -13.339  43.654  0.00  0.00    +0.048 A 
ATOM      7  C   UNK A   0     -29.677 -14.365  44.334  0.00  0.00    +0.015 A 
ATOM      8  C   UNK A   0     -30.994 -14.196  44.821  0.00  0.00    +0.006 A 
BRANCH   3   9
ATOM      9  C   UNK A   0     -32.966 -12.872  45.104  0.00  0.00    +0.265 C 
ATOM     10  O   UNK A   0     -33.920 -13.556  44.689  0.00  0.00    -0.268 OA
ATOM     11  N   GLU A   1     -33.142 -12.204  46.208  0.00  0.00    -0.192 N 
ATOM     12  H   GLU A   1     -32.382 -11.930  46.771  0.00  0.00    +0.000 HD
BRANCH  11  13
ATOM     13  CA  GLU A   1     -34.554 -11.872  46.581  0.00  0.00    +0.199 C 
BRANCH  13  14
ATOM     14  C   GLU A   1     -34.714 -10.463  47.028  0.00  0.00    +0.384 C 
ATOM     15  OXT GLU A   1     -33.766  -9.658  46.856  0.00  0.00    -0.244 OA
ATOM     16  O   GLU A   1     -35.798 -10.210  47.645  0.00  0.00    -0.244 OA
ENDBRANCH  13  14
BRANCH  13  17
ATOM     17  CB  GLU A   1     -34.874 -12.630  47.876  0.00  0.00    +0.045 C 
BRANCH  17  18
ATOM     18  CG  GLU A   1     -33.618 -12.548  48.845  0.00  0.00    +0.116 C 
BRANCH  18  19
ATOM     19  CD  GLU A   1     -32.977 -13.936  48.846  0.00  0.00    +0.365 C 
ATOM     20  OE1 GLU A   1     -31.779 -13.860  48.419  0.00  0.00    -0.246 OA
ATOM     21  OE2 GLU A   1     -33.593 -14.913  49.347  0.00  0.00    -0.246 OA
ENDBRANCH  18  19
ENDBRANCH  17  18
ENDBRANCH  13  17
ENDBRANCH  11  13
ENDBRANCH   3   9
ENDBRANCH   1   6
BRANCH   1  22
ATOM     22  C   UNK A   0     -27.093 -14.711  42.971  0.00  0.00    +0.121 C 
BRANCH  22  31
ATOM     23  N   UNK A   0     -24.919 -16.406  47.654  0.00  0.00    -0.348 NA
ATOM     24  C   UNK A   0     -25.416 -17.436  48.290  0.00  0.00    +0.302 C 
ATOM     25  N   UNK A   0     -24.869 -17.807  49.375  0.00  0.00    -0.076 N 
ATOM     26  N   UNK A   0     -26.543 -18.133  47.730  0.00  0.00    -0.145 N 
ATOM     27  C   UNK A   0     -27.142 -17.797  46.568  0.00  0.00    +0.198 C 
ATOM     28  N   UNK A   0     -28.153 -18.454  46.113  0.00  0.00    -0.128 N 
ATOM     29  C   UNK A   0     -26.526 -16.660  45.894  0.00  0.00    +0.160 C 
ATOM     30  N   UNK A   0     -27.049 -16.277  44.762  0.00  0.00    -0.258 NA
ATOM     31  C   UNK A   0     -26.489 -15.175  44.220  0.00  0.00    +0.164 C 
ATOM     32  C   UNK A   0     -25.430 -14.532  44.872  0.00  0.00    +0.101 C 
ATOM     33  N   UNK A   0     -24.886 -14.901  45.985  0.00  0.00    -0.216 NA
ATOM     34  C   UNK A   0     -25.477 -16.010  46.466  0.00  0.00    +0.237 C 
ATOM     35  H   UNK A   0     -25.228 -18.580  49.869  0.00  0.00    +0.000 HD
ATOM     36  H   UNK A   0     -24.085 -17.322  49.723  0.00  0.00    +0.000 HD
ATOM     37  H   UNK A   0     -26.900 -18.905  48.226  0.00  0.00    +0.000 HD
ATOM     38  H   UNK A   0     -28.571 -18.188  45.263  0.00  0.00    +0.000 HD
ATOM     39  H   UNK A   0     -28.506 -19.223  46.616  0.00  0.00    +0.000 HD
ENDBRANCH  22  31
ENDBRANCH   1  22
TORSDOF 9
ENDMDL
MODEL 8
REMARK VINA RESULT:    -8.834      5.170      8.801
REMARK INTER + INTRA:         -13.826
REMARK INTER:                 -12.767
REMARK INTRA:                  -1.058
REMARK UNBOUND:                -0.343
REMARK  Name = /mnt/c/Personal/tickdock/data/docking/counterdock_calibration/1RG7_lig_raw.pdb
REMARK  10 active torsions:
REMARK  status: ('A' for Active; 'I' for Inactive)
REMARK    1  A    between atoms: C_9  and  C_13
REMARK    2  A    between atoms: C_13  and  N_14
REMARK    3  A    between atoms: N_14  and  C_15
REMARK    4  A    between atoms: N_14  and  C_19
REMARK    5  A    between atoms: C_16  and  C_22
REMARK    6  A    between atoms: N_24  and  CA_25
REMARK    7  A    between atoms: CA_25  and  C_26
REMARK    8  A    between atoms: CA_25  and  CB_29
REMARK    9  A    between atoms: CB_29  and  CG_30
REMARK   10  A    between atoms: CG_30  and  CD_31
REMARK                            x       y       z     vdW  Elec       q    Type
REMARK                         _______ _______ _______ _____ _____    ______ ____
ROOT
ATOM      1  N   UNK A   0     -33.927 -12.573  43.660  0.00  0.00    -0.304 N 
ATOM      2  C   UNK A   0     -34.716 -11.959  42.560  0.00  0.00    +0.112 C 
ENDROOT
BRANCH   1   6
ATOM      3  C   UNK A   0     -29.853 -13.310  43.126  0.00  0.00    +0.055 A 
ATOM      4  C   UNK A   0     -30.597 -12.443  42.241  0.00  0.00    +0.006 A 
ATOM      5  C   UNK A   0     -31.936 -12.232  42.456  0.00  0.00    +0.015 A 
ATOM      6  C   UNK A   0     -32.555 -12.868  43.544  0.00  0.00    +0.048 A 
ATOM      7  C   UNK A   0     -31.863 -13.687  44.407  0.00  0.00    +0.015 A 
ATOM      8  C   UNK A   0     -30.482 -13.916  44.206  0.00  0.00    +0.006 A 
BRANCH   3   9
ATOM      9  C   UNK A   0     -28.460 -13.561  42.978  0.00  0.00    +0.265 C 
ATOM     10  O   UNK A   0     -27.899 -13.721  41.878  0.00  0.00    -0.268 OA
ATOM     11  N   GLU A   1     -27.700 -13.370  44.018  0.00  0.00    -0.192 N 
ATOM     12  H   GLU A   1     -28.033 -12.912  44.823  0.00  0.00    +0.000 HD
BRANCH  11  13
ATOM     13  CA  GLU A   1     -26.294 -13.880  43.931  0.00  0.00    +0.199 C 
BRANCH  13  14
ATOM     14  C   GLU A   1     -26.060 -15.069  44.793  0.00  0.00    +0.384 C 
ATOM     15  OXT GLU A   1     -25.370 -14.940  45.834  0.00  0.00    -0.244 OA
ATOM     16  O   GLU A   1     -26.521 -16.165  44.341  0.00  0.00    -0.244 OA
ENDBRANCH  13  14
BRANCH  13  17
ATOM     17  CB  GLU A   1     -25.390 -12.842  44.609  0.00  0.00    +0.045 C 
BRANCH  17  18
ATOM     18  CG  GLU A   1     -24.434 -12.200  43.514  0.00  0.00    +0.116 C 
BRANCH  18  19
ATOM     19  CD  GLU A   1     -25.312 -11.299  42.645  0.00  0.00    +0.365 C 
ATOM     20  OE1 GLU A   1     -25.840 -10.387  43.362  0.00  0.00    -0.246 OA
ATOM     21  OE2 GLU A   1     -25.325 -11.450  41.395  0.00  0.00    -0.246 OA
ENDBRANCH  18  19
ENDBRANCH  17  18
ENDBRANCH  13  17
ENDBRANCH  11  13
ENDBRANCH   3   9
ENDBRANCH   1   6
BRANCH   1  22
ATOM     22  C   UNK A   0     -34.668 -12.974  44.864  0.00  0.00    +0.121 C 
BRANCH  22  31
ATOM     23  N   UNK A   0     -33.128 -10.251  49.308  0.00  0.00    -0.348 NA
ATOM     24  C   UNK A   0     -32.826 -10.886  50.412  0.00  0.00    +0.302 C 
ATOM     25  N   UNK A   0     -32.458 -10.211  51.424  0.00  0.00    -0.076 N 
ATOM     26  N   UNK A   0     -32.890 -12.322  50.439  0.00  0.00    -0.145 N 
ATOM     27  C   UNK A   0     -33.247 -13.087  49.384  0.00  0.00    +0.198 C 
ATOM     28  N   UNK A   0     -33.291 -14.372  49.464  0.00  0.00    -0.128 N 
ATOM     29  C   UNK A   0     -33.545 -12.323  48.178  0.00  0.00    +0.160 C 
ATOM     30  N   UNK A   0     -33.895 -12.993  47.115  0.00  0.00    -0.258 NA
ATOM     31  C   UNK A   0     -34.233 -12.235  46.051  0.00  0.00    +0.164 C 
ATOM     32  C   UNK A   0     -34.194 -10.839  46.141  0.00  0.00    +0.101 C 
ATOM     33  N   UNK A   0     -33.836 -10.155  47.177  0.00  0.00    -0.216 NA
ATOM     34  C   UNK A   0     -33.498 -10.964  48.197  0.00  0.00    +0.237 C 
ATOM     35  H   UNK A   0     -32.226 -10.670  52.264  0.00  0.00    +0.000 HD
ATOM     36  H   UNK A   0     -32.404  -9.229  51.369  0.00  0.00    +0.000 HD
ATOM     37  H   UNK A   0     -32.658 -12.778  51.281  0.00  0.00    +0.000 HD
ATOM     38  H   UNK A   0     -33.555 -14.905  48.681  0.00  0.00    +0.000 HD
ATOM     39  H   UNK A   0     -33.061 -14.820  50.310  0.00  0.00    +0.000 HD
ENDBRANCH  22  31
ENDBRANCH   1  22
TORSDOF 9
ENDMDL
MODEL 9
REMARK VINA RESULT:    -8.805      2.035      2.621
REMARK INTER + INTRA:         -13.781
REMARK INTER:                 -13.054
REMARK INTRA:                  -0.727
REMARK UNBOUND:                -0.343
REMARK  Name = /mnt/c/Personal/tickdock/data/docking/counterdock_calibration/1RG7_lig_raw.pdb
REMARK  10 active torsions:
REMARK  status: ('A' for Active; 'I' for Inactive)
REMARK    1  A    between atoms: C_9  and  C_13
REMARK    2  A    between atoms: C_13  and  N_14
REMARK    3  A    between atoms: N_14  and  C_15
REMARK    4  A    between atoms: N_14  and  C_19
REMARK    5  A    between atoms: C_16  and  C_22
REMARK    6  A    between atoms: N_24  and  CA_25
REMARK    7  A    between atoms: CA_25  and  C_26
REMARK    8  A    between atoms: CA_25  and  CB_29
REMARK    9  A    between atoms: CB_29  and  CG_30
REMARK   10  A    between atoms: CG_30  and  CD_31
REMARK                            x       y       z     vdW  Elec       q    Type
REMARK                         _______ _______ _______ _____ _____    ______ ____
ROOT
ATOM      1  N   UNK A   0     -28.792 -14.381  43.821  0.00  0.00    -0.304 N 
ATOM      2  C   UNK A   0     -27.496 -13.681  43.621  0.00  0.00    +0.112 C 
ENDROOT
BRANCH   1   6
ATOM      3  C   UNK A   0     -32.423 -12.331  43.638  0.00  0.00    +0.055 A 
ATOM      4  C   UNK A   0     -31.531 -12.410  42.504  0.00  0.00    +0.006 A 
ATOM      5  C   UNK A   0     -30.346 -13.095  42.613  0.00  0.00    +0.015 A 
ATOM      6  C   UNK A   0     -30.030 -13.711  43.835  0.00  0.00    +0.048 A 
ATOM      7  C   UNK A   0     -30.871 -13.659  44.923  0.00  0.00    +0.015 A 
ATOM      8  C   UNK A   0     -32.098 -12.961  44.832  0.00  0.00    +0.006 A 
BRANCH   3   9
ATOM      9  C   UNK A   0     -33.675 -11.656  43.596  0.00  0.00    +0.265 C 
ATOM     10  O   UNK A   0     -34.104 -10.934  44.516  0.00  0.00    -0.268 OA
ATOM     11  N   GLU A   1     -34.286 -11.590  42.447  0.00  0.00    -0.192 N 
ATOM     12  H   GLU A   1     -33.836 -11.842  41.608  0.00  0.00    +0.000 HD
BRANCH  11  13
ATOM     13  CA  GLU A   1     -35.705 -11.113  42.461  0.00  0.00    +0.199 C 
BRANCH  13  14
ATOM     14  C   GLU A   1     -36.686 -12.230  42.512  0.00  0.00    +0.384 C 
ATOM     15  OXT GLU A   1     -37.719 -12.166  41.802  0.00  0.00    -0.244 OA
ATOM     16  O   GLU A   1     -36.428 -13.140  43.363  0.00  0.00    -0.244 OA
ENDBRANCH  13  14
BRANCH  13  17
ATOM     17  CB  GLU A   1     -36.003 -10.523  41.076  0.00  0.00    +0.045 C 
BRANCH  17  18
ATOM     18  CG  GLU A   1     -34.676  -9.865  40.502  0.00  0.00    +0.116 C 
BRANCH  18  19
ATOM     19  CD  GLU A   1     -35.077  -9.114  39.232  0.00  0.00    +0.365 C 
ATOM     20  OE1 GLU A   1     -34.682  -9.758  38.206  0.00  0.00    -0.246 OA
ATOM     21  OE2 GLU A   1     -35.806  -8.091  39.310  0.00  0.00    -0.246 OA
ENDBRANCH  18  19
ENDBRANCH  17  18
ENDBRANCH  13  17
ENDBRANCH  11  13
ENDBRANCH   3   9
ENDBRANCH   1   6
BRANCH   1  22
ATOM     22  C   UNK A   0     -28.729 -15.819  44.121  0.00  0.00    +0.121 C 
BRANCH  22  31
ATOM     23  N   UNK A   0     -26.080 -16.903  48.741  0.00  0.00    -0.348 NA
ATOM     24  C   UNK A   0     -25.231 -17.895  48.809  0.00  0.00    +0.302 C 
ATOM     25  N   UNK A   0     -24.623 -18.106  49.906  0.00  0.00    -0.076 N 
ATOM     26  N   UNK A   0     -24.988 -18.697  47.640  0.00  0.00    -0.145 N 
ATOM     27  C   UNK A   0     -25.586 -18.498  46.446  0.00  0.00    +0.198 C 
ATOM     28  N   UNK A   0     -25.334 -19.250  45.430  0.00  0.00    -0.128 N 
ATOM     29  C   UNK A   0     -26.499 -17.362  46.426  0.00  0.00    +0.160 C 
ATOM     30  N   UNK A   0     -27.113 -17.105  45.305  0.00  0.00    -0.258 NA
ATOM     31  C   UNK A   0     -28.003 -16.092  45.362  0.00  0.00    +0.164 C 
ATOM     32  C   UNK A   0     -28.211 -15.406  46.565  0.00  0.00    +0.101 C 
ATOM     33  N   UNK A   0     -27.604 -15.634  47.683  0.00  0.00    -0.216 NA
ATOM     34  C   UNK A   0     -26.722 -16.641  47.558  0.00  0.00    +0.237 C 
ATOM     35  H   UNK A   0     -23.980 -18.848  49.978  0.00  0.00    +0.000 HD
ATOM     36  H   UNK A   0     -24.795 -17.527  50.683  0.00  0.00    +0.000 HD
ATOM     37  H   UNK A   0     -24.345 -19.439  47.716  0.00  0.00    +0.000 HD
ATOM     38  H   UNK A   0     -25.783 -19.083  44.571  0.00  0.00    +0.000 HD
ATOM     39  H   UNK A   0     -24.692 -19.991  45.514  0.00  0.00    +0.000 HD
ENDBRANCH  22  31
ENDBRANCH   1  22
TORSDOF 9
ENDMDL
