MODEL 1
REMARK VINA RESULT:    -7.821      0.000      0.000
REMARK INTER + INTRA:         -10.421
REMARK INTER:                 -10.108
REMARK INTRA:                  -0.313
REMARK UNBOUND:                -0.313
REMARK  Name = /mnt/c/Personal/tickdock/data/docking/counterdock_calibration/7NAE_lig_raw.pdb
REMARK  8 active torsions:
REMARK  status: ('A' for Active; 'I' for Inactive)
REMARK    1  A    between atoms: C8_8  and  C9_9
REMARK    2  A    between atoms: C9_9  and  C10_10
REMARK    3  A    between atoms: C12_12  and  O13_13
REMARK    4  A    between atoms: O13_13  and  C14_14
REMARK    5  A    between atoms: C15_15  and  O16_16
REMARK    6  A    between atoms: O16_16  and  C17_17
REMARK    7  A    between atoms: C18_18  and  O19_19
REMARK    8  A    between atoms: O19_19  and  C20_20
REMARK                            x       y       z     vdW  Elec       q    Type
REMARK                         _______ _______ _______ _____ _____    ______ ____
ROOT
ATOM      1  C9  TOP A 201     -12.436  23.111  -7.410  0.00  0.00    +0.057 C 
ENDROOT
BRANCH   1   9
ATOM      2  C1  TOP A 201     -11.245  24.941  -6.051  0.00  0.00    +0.101 A 
ATOM      3  N2  TOP A 201     -10.458  26.025  -5.939  0.00  0.00    -0.210 NA
ATOM      4  C3  TOP A 201      -9.979  26.558  -7.092  0.00  0.00    +0.258 A 
ATOM      5  N4  TOP A 201      -9.253  27.680  -7.033  0.00  0.00    -0.086 N 
ATOM      6  N5  TOP A 201     -10.198  26.046  -8.314  0.00  0.00    -0.193 NA
ATOM      7  C6  TOP A 201     -10.987  24.961  -8.404  0.00  0.00    +0.170 A 
ATOM      8  N7  TOP A 201     -11.155  24.444  -9.633  0.00  0.00    -0.107 N 
ATOM      9  C8  TOP A 201     -11.542  24.340  -7.271  0.00  0.00    +0.036 A 
ATOM     10  H   TOP A 201      -9.063  28.097  -6.162  0.00  0.00    +0.000 HD
ATOM     11  H   TOP A 201      -8.910  28.089  -7.860  0.00  0.00    +0.000 HD
ATOM     12  H   TOP A 201     -10.759  24.893 -10.414  0.00  0.00    +0.000 HD
ATOM     13  H   TOP A 201     -11.675  23.616  -9.752  0.00  0.00    +0.000 HD
ENDBRANCH   1   9
BRANCH   1  14
ATOM     14  C10 TOP A 201     -13.904  23.353  -7.114  0.00  0.00    -0.011 A 
ATOM     15  C11 TOP A 201     -14.462  24.632  -7.051  0.00  0.00    +0.036 A 
ATOM     16  C12 TOP A 201     -15.812  24.803  -6.728  0.00  0.00    +0.175 A 
ATOM     17  C15 TOP A 201     -16.620  23.687  -6.448  0.00  0.00    +0.206 A 
ATOM     18  C18 TOP A 201     -16.048  22.419  -6.540  0.00  0.00    +0.175 A 
ATOM     19  C21 TOP A 201     -14.707  22.257  -6.839  0.00  0.00    +0.036 A 
BRANCH  16  20
ATOM     20  O13 TOP A 201     -16.455  26.012  -6.655  0.00  0.00    -0.468 OA
ATOM     21  C14 TOP A 201     -15.700  27.176  -6.325  0.00  0.00    +0.253 C 
ENDBRANCH  16  20
BRANCH  17  22
ATOM     22  O16 TOP A 201     -17.967  23.780  -6.116  0.00  0.00    -0.465 OA
ATOM     23  C17 TOP A 201     -18.927  23.784  -7.182  0.00  0.00    +0.253 C 
ENDBRANCH  17  22
BRANCH  18  24
ATOM     24  O19 TOP A 201     -16.871  21.384  -6.231  0.00  0.00    -0.468 OA
ATOM     25  C20 TOP A 201     -16.221  20.184  -5.831  0.00  0.00    +0.253 C 
ENDBRANCH  18  24
ENDBRANCH   1  14
TORSDOF 5
ENDMDL
MODEL 2
REMARK VINA RESULT:    -7.817      4.614      6.825
REMARK INTER + INTRA:         -10.415
REMARK INTER:                 -10.094
REMARK INTRA:                  -0.321
REMARK UNBOUND:                -0.313
REMARK  Name = /mnt/c/Personal/tickdock/data/docking/counterdock_calibration/7NAE_lig_raw.pdb
REMARK  8 active torsions:
REMARK  status: ('A' for Active; 'I' for Inactive)
REMARK    1  A    between atoms: C8_8  and  C9_9
REMARK    2  A    between atoms: C9_9  and  C10_10
REMARK    3  A    between atoms: C12_12  and  O13_13
REMARK    4  A    between atoms: O13_13  and  C14_14
REMARK    5  A    between atoms: C15_15  and  O16_16
REMARK    6  A    between atoms: O16_16  and  C17_17
REMARK    7  A    between atoms: C18_18  and  O19_19
REMARK    8  A    between atoms: O19_19  and  C20_20
REMARK                            x       y       z     vdW  Elec       q    Type
REMARK                         _______ _______ _______ _____ _____    ______ ____
ROOT
ATOM      1  C9  TOP A 201     -15.824  24.727  -4.898  0.00  0.00    +0.057 C 
ENDROOT
BRANCH   1   9
ATOM      2  C1  TOP A 201     -17.286  24.827  -7.011  0.00  0.00    +0.101 A 
ATOM      3  N2  TOP A 201     -18.370  24.490  -7.731  0.00  0.00    -0.210 NA
ATOM      4  C3  TOP A 201     -19.277  23.676  -7.132  0.00  0.00    +0.258 A 
ATOM      5  N4  TOP A 201     -20.406  23.377  -7.784  0.00  0.00    -0.086 N 
ATOM      6  N5  TOP A 201     -19.134  23.155  -5.903  0.00  0.00    -0.193 NA
ATOM      7  C6  TOP A 201     -18.042  23.503  -5.200  0.00  0.00    +0.170 A 
ATOM      8  N7  TOP A 201     -17.903  22.934  -3.991  0.00  0.00    -0.107 N 
ATOM      9  C8  TOP A 201     -17.049  24.349  -5.725  0.00  0.00    +0.036 A 
ATOM     10  H   TOP A 201     -20.561  23.733  -8.688  0.00  0.00    +0.000 HD
ATOM     11  H   TOP A 201     -21.081  22.800  -7.359  0.00  0.00    +0.000 HD
ATOM     12  H   TOP A 201     -18.608  22.344  -3.640  0.00  0.00    +0.000 HD
ATOM     13  H   TOP A 201     -17.094  23.106  -3.456  0.00  0.00    +0.000 HD
ENDBRANCH   1   9
BRANCH   1  14
ATOM     14  C10 TOP A 201     -14.910  25.752  -5.541  0.00  0.00    -0.011 A 
ATOM     15  C11 TOP A 201     -15.075  27.128  -5.364  0.00  0.00    +0.036 A 
ATOM     16  C12 TOP A 201     -14.233  28.034  -6.018  0.00  0.00    +0.175 A 
ATOM     17  C15 TOP A 201     -13.220  27.569  -6.874  0.00  0.00    +0.206 A 
ATOM     18  C18 TOP A 201     -13.059  26.191  -7.018  0.00  0.00    +0.175 A 
ATOM     19  C21 TOP A 201     -13.907  25.300  -6.385  0.00  0.00    +0.036 A 
BRANCH  16  20
ATOM     20  O13 TOP A 201     -14.304  29.399  -5.898  0.00  0.00    -0.468 OA
ATOM     21  C14 TOP A 201     -15.289  30.107  -6.648  0.00  0.00    +0.253 C 
ENDBRANCH  16  20
BRANCH  17  22
ATOM     22  O16 TOP A 201     -12.350  28.409  -7.559  0.00  0.00    -0.465 OA
ATOM     23  C17 TOP A 201     -11.193  28.897  -6.865  0.00  0.00    +0.253 C 
ENDBRANCH  17  22
BRANCH  18  24
ATOM     24  O19 TOP A 201     -12.083  25.805  -7.879  0.00  0.00    -0.468 OA
ATOM     25  C20 TOP A 201     -11.888  24.400  -7.992  0.00  0.00    +0.253 C 
ENDBRANCH  18  24
ENDBRANCH   1  14
TORSDOF 5
ENDMDL
MODEL 3
REMARK VINA RESULT:    -7.787      4.663      7.236
REMARK INTER + INTRA:         -10.376
REMARK INTER:                 -10.082
REMARK INTRA:                  -0.294
REMARK UNBOUND:                -0.313
REMARK  Name = /mnt/c/Personal/tickdock/data/docking/counterdock_calibration/7NAE_lig_raw.pdb
REMARK  8 active torsions:
REMARK  status: ('A' for Active; 'I' for Inactive)
REMARK    1  A    between atoms: C8_8  and  C9_9
REMARK    2  A    between atoms: C9_9  and  C10_10
REMARK    3  A    between atoms: C12_12  and  O13_13
REMARK    4  A    between atoms: O13_13  and  C14_14
REMARK    5  A    between atoms: C15_15  and  O16_16
REMARK    6  A    between atoms: O16_16  and  C17_17
REMARK    7  A    between atoms: C18_18  and  O19_19
REMARK    8  A    between atoms: O19_19  and  C20_20
REMARK                            x       y       z     vdW  Elec       q    Type
REMARK                         _______ _______ _______ _____ _____    ______ ____
ROOT
ATOM      1  C9  TOP A 201     -15.824  24.594  -5.164  0.00  0.00    +0.057 C 
ENDROOT
BRANCH   1   9
ATOM      2  C1  TOP A 201     -17.452  24.797  -7.144  0.00  0.00    +0.101 A 
ATOM      3  N2  TOP A 201     -18.587  24.490  -7.795  0.00  0.00    -0.210 NA
ATOM      4  C3  TOP A 201     -19.437  23.631  -7.174  0.00  0.00    +0.258 A 
ATOM      5  N4  TOP A 201     -20.612  23.356  -7.751  0.00  0.00    -0.086 N 
ATOM      6  N5  TOP A 201     -19.193  23.042  -5.993  0.00  0.00    -0.193 NA
ATOM      7  C6  TOP A 201     -18.050  23.362  -5.359  0.00  0.00    +0.170 A 
ATOM      8  N7  TOP A 201     -17.810  22.726  -4.201  0.00  0.00    -0.107 N 
ATOM      9  C8  TOP A 201     -17.109  24.249  -5.912  0.00  0.00    +0.036 A 
ATOM     10  H   TOP A 201     -20.842  23.762  -8.618  0.00  0.00    +0.000 HD
ATOM     11  H   TOP A 201     -21.247  22.747  -7.308  0.00  0.00    +0.000 HD
ATOM     12  H   TOP A 201     -18.481  22.108  -3.831  0.00  0.00    +0.000 HD
ATOM     13  H   TOP A 201     -16.963  22.876  -3.723  0.00  0.00    +0.000 HD
ENDBRANCH   1   9
BRANCH   1  14
ATOM     14  C10 TOP A 201     -14.919  25.582  -5.872  0.00  0.00    -0.011 A 
ATOM     15  C11 TOP A 201     -14.064  25.213  -6.914  0.00  0.00    +0.036 A 
ATOM     16  C12 TOP A 201     -13.214  26.156  -7.502  0.00  0.00    +0.175 A 
ATOM     17  C15 TOP A 201     -13.199  27.483  -7.040  0.00  0.00    +0.206 A 
ATOM     18  C18 TOP A 201     -14.077  27.834  -6.015  0.00  0.00    +0.175 A 
ATOM     19  C21 TOP A 201     -14.900  26.894  -5.423  0.00  0.00    +0.036 A 
BRANCH  16  20
ATOM     20  O13 TOP A 201     -12.352  25.896  -8.537  0.00  0.00    -0.468 OA
ATOM     21  C14 TOP A 201     -11.443  24.802  -8.421  0.00  0.00    +0.253 C 
ENDBRANCH  16  20
BRANCH  17  22
ATOM     22  O16 TOP A 201     -12.379  28.471  -7.573  0.00  0.00    -0.465 OA
ATOM     23  C17 TOP A 201     -11.058  28.616  -7.034  0.00  0.00    +0.253 C 
ENDBRANCH  17  22
BRANCH  18  24
ATOM     24  O19 TOP A 201     -13.996  29.123  -5.594  0.00  0.00    -0.468 OA
ATOM     25  C20 TOP A 201     -15.007  29.992  -6.090  0.00  0.00    +0.253 C 
ENDBRANCH  18  24
ENDBRANCH   1  14
TORSDOF 5
ENDMDL
MODEL 4
REMARK VINA RESULT:    -7.755      0.348      2.828
REMARK INTER + INTRA:         -10.335
REMARK INTER:                 -10.089
REMARK INTRA:                  -0.246
REMARK UNBOUND:                -0.313
REMARK  Name = /mnt/c/Personal/tickdock/data/docking/counterdock_calibration/7NAE_lig_raw.pdb
REMARK  8 active torsions:
REMARK  status: ('A' for Active; 'I' for Inactive)
REMARK    1  A    between atoms: C8_8  and  C9_9
REMARK    2  A    between atoms: C9_9  and  C10_10
REMARK    3  A    between atoms: C12_12  and  O13_13
REMARK    4  A    between atoms: O13_13  and  C14_14
REMARK    5  A    between atoms: C15_15  and  O16_16
REMARK    6  A    between atoms: O16_16  and  C17_17
REMARK    7  A    between atoms: C18_18  and  O19_19
REMARK    8  A    between atoms: O19_19  and  C20_20
REMARK                            x       y       z     vdW  Elec       q    Type
REMARK                         _______ _______ _______ _____ _____    ______ ____
ROOT
ATOM      1  C9  TOP A 201     -12.508  23.021  -7.549  0.00  0.00    +0.057 C 
ENDROOT
BRANCH   1   9
ATOM      2  C1  TOP A 201     -11.404  24.820  -6.081  0.00  0.00    +0.101 A 
ATOM      3  N2  TOP A 201     -10.643  25.913  -5.900  0.00  0.00    -0.210 NA
ATOM      4  C3  TOP A 201     -10.133  26.498  -7.014  0.00  0.00    +0.258 A 
ATOM      5  N4  TOP A 201      -9.433  27.630  -6.887  0.00  0.00    -0.086 N 
ATOM      6  N5  TOP A 201     -10.298  26.029  -8.261  0.00  0.00    -0.193 NA
ATOM      7  C6  TOP A 201     -11.062  24.933  -8.421  0.00  0.00    +0.170 A 
ATOM      8  N7  TOP A 201     -11.175  24.460  -9.672  0.00  0.00    -0.107 N 
ATOM      9  C8  TOP A 201     -11.644  24.260  -7.332  0.00  0.00    +0.036 A 
ATOM     10  H   TOP A 201      -9.282  28.018  -5.994  0.00  0.00    +0.000 HD
ATOM     11  H   TOP A 201      -9.068  28.076  -7.685  0.00  0.00    +0.000 HD
ATOM     12  H   TOP A 201     -10.760  24.945 -10.421  0.00  0.00    +0.000 HD
ATOM     13  H   TOP A 201     -11.673  23.627  -9.841  0.00  0.00    +0.000 HD
ENDBRANCH   1   9
BRANCH   1  14
ATOM     14  C10 TOP A 201     -13.921  23.124  -7.007  0.00  0.00    -0.011 A 
ATOM     15  C11 TOP A 201     -14.645  22.014  -6.566  0.00  0.00    +0.036 A 
ATOM     16  C12 TOP A 201     -15.963  22.158  -6.119  0.00  0.00    +0.175 A 
ATOM     17  C15 TOP A 201     -16.579  23.421  -6.124  0.00  0.00    +0.206 A 
ATOM     18  C18 TOP A 201     -15.830  24.518  -6.547  0.00  0.00    +0.175 A 
ATOM     19  C21 TOP A 201     -14.534  24.368  -7.007  0.00  0.00    +0.036 A 
BRANCH  16  20
ATOM     20  O13 TOP A 201     -16.750  21.135  -5.654  0.00  0.00    -0.468 OA
ATOM     21  C14 TOP A 201     -16.201  19.820  -5.583  0.00  0.00    +0.253 C 
ENDBRANCH  16  20
BRANCH  17  22
ATOM     22  O16 TOP A 201     -17.885  23.639  -5.699  0.00  0.00    -0.465 OA
ATOM     23  C17 TOP A 201     -18.946  23.426  -6.640  0.00  0.00    +0.253 C 
ENDBRANCH  17  22
BRANCH  18  24
ATOM     24  O19 TOP A 201     -16.488  25.706  -6.555  0.00  0.00    -0.468 OA
ATOM     25  C20 TOP A 201     -15.711  26.839  -6.184  0.00  0.00    +0.253 C 
ENDBRANCH  18  24
ENDBRANCH   1  14
TORSDOF 5
ENDMDL
MODEL 5
REMARK VINA RESULT:    -7.541      4.161      6.277
REMARK INTER + INTRA:         -10.058
REMARK INTER:                  -9.686
REMARK INTRA:                  -0.371
REMARK UNBOUND:                -0.313
REMARK  Name = /mnt/c/Personal/tickdock/data/docking/counterdock_calibration/7NAE_lig_raw.pdb
REMARK  8 active torsions:
REMARK  status: ('A' for Active; 'I' for Inactive)
REMARK    1  A    between atoms: C8_8  and  C9_9
REMARK    2  A    between atoms: C9_9  and  C10_10
REMARK    3  A    between atoms: C12_12  and  O13_13
REMARK    4  A    between atoms: O13_13  and  C14_14
REMARK    5  A    between atoms: C15_15  and  O16_16
REMARK    6  A    between atoms: O16_16  and  C17_17
REMARK    7  A    between atoms: C18_18  and  O19_19
REMARK    8  A    between atoms: O19_19  and  C20_20
REMARK                            x       y       z     vdW  Elec       q    Type
REMARK                         _______ _______ _______ _____ _____    ______ ____
ROOT
ATOM      1  C9  TOP A 201     -16.500  25.494  -6.142  0.00  0.00    +0.057 C 
ENDROOT
BRANCH   1   9
ATOM      2  C1  TOP A 201     -15.615  23.414  -4.917  0.00  0.00    +0.101 A 
ATOM      3  N2  TOP A 201     -15.564  22.089  -4.695  0.00  0.00    -0.210 NA
ATOM      4  C3  TOP A 201     -16.332  21.303  -5.491  0.00  0.00    +0.258 A 
ATOM      5  N4  TOP A 201     -16.256  19.974  -5.355  0.00  0.00    -0.086 N 
ATOM      6  N5  TOP A 201     -17.165  21.764  -6.438  0.00  0.00    -0.193 NA
ATOM      7  C6  TOP A 201     -17.202  23.093  -6.644  0.00  0.00    +0.170 A 
ATOM      8  N7  TOP A 201     -18.074  23.531  -7.566  0.00  0.00    -0.107 N 
ATOM      9  C8  TOP A 201     -16.436  23.992  -5.879  0.00  0.00    +0.036 A 
ATOM     10  H   TOP A 201     -15.660  19.583  -4.676  0.00  0.00    +0.000 HD
ATOM     11  H   TOP A 201     -16.794  19.388  -5.935  0.00  0.00    +0.000 HD
ATOM     12  H   TOP A 201     -18.601  22.886  -8.090  0.00  0.00    +0.000 HD
ATOM     13  H   TOP A 201     -18.187  24.497  -7.717  0.00  0.00    +0.000 HD
ENDBRANCH   1   9
BRANCH   1  14
ATOM     14  C10 TOP A 201     -15.172  26.138  -6.489  0.00  0.00    -0.011 A 
ATOM     15  C11 TOP A 201     -14.811  27.413  -6.044  0.00  0.00    +0.036 A 
ATOM     16  C12 TOP A 201     -13.593  27.981  -6.432  0.00  0.00    +0.175 A 
ATOM     17  C15 TOP A 201     -12.724  27.281  -7.287  0.00  0.00    +0.206 A 
ATOM     18  C18 TOP A 201     -13.095  26.002  -7.699  0.00  0.00    +0.175 A 
ATOM     19  C21 TOP A 201     -14.309  25.453  -7.330  0.00  0.00    +0.036 A 
BRANCH  16  20
ATOM     20  O13 TOP A 201     -13.143  29.216  -6.039  0.00  0.00    -0.468 OA
ATOM     21  C14 TOP A 201     -14.029  30.331  -6.119  0.00  0.00    +0.253 C 
ENDBRANCH  16  20
BRANCH  17  22
ATOM     22  O16 TOP A 201     -11.502  27.784  -7.717  0.00  0.00    -0.465 OA
ATOM     23  C17 TOP A 201     -10.332  27.463  -6.951  0.00  0.00    +0.253 C 
ENDBRANCH  17  22
BRANCH  18  24
ATOM     24  O19 TOP A 201     -12.228  25.388  -8.545  0.00  0.00    -0.468 OA
ATOM     25  C20 TOP A 201     -11.798  24.092  -8.146  0.00  0.00    +0.253 C 
ENDBRANCH  18  24
ENDBRANCH   1  14
TORSDOF 5
ENDMDL
MODEL 6
REMARK VINA RESULT:    -7.521      4.062      6.698
REMARK INTER + INTRA:         -10.032
REMARK INTER:                  -9.477
REMARK INTRA:                  -0.556
REMARK UNBOUND:                -0.313
REMARK  Name = /mnt/c/Personal/tickdock/data/docking/counterdock_calibration/7NAE_lig_raw.pdb
REMARK  8 active torsions:
REMARK  status: ('A' for Active; 'I' for Inactive)
REMARK    1  A    between atoms: C8_8  and  C9_9
REMARK    2  A    between atoms: C9_9  and  C10_10
REMARK    3  A    between atoms: C12_12  and  O13_13
REMARK    4  A    between atoms: O13_13  and  C14_14
REMARK    5  A    between atoms: C15_15  and  O16_16
REMARK    6  A    between atoms: O16_16  and  C17_17
REMARK    7  A    between atoms: C18_18  and  O19_19
REMARK    8  A    between atoms: O19_19  and  C20_20
REMARK                            x       y       z     vdW  Elec       q    Type
REMARK                         _______ _______ _______ _____ _____    ______ ____
ROOT
ATOM      1  C9  TOP A 201     -15.563  24.510  -4.351  0.00  0.00    +0.057 C 
ENDROOT
BRANCH   1   9
ATOM      2  C1  TOP A 201     -16.659  22.718  -5.834  0.00  0.00    +0.101 A 
ATOM      3  N2  TOP A 201     -16.836  21.450  -6.243  0.00  0.00    -0.210 NA
ATOM      4  C3  TOP A 201     -16.127  20.491  -5.594  0.00  0.00    +0.258 A 
ATOM      5  N4  TOP A 201     -16.328  19.209  -5.918  0.00  0.00    -0.086 N 
ATOM      6  N5  TOP A 201     -15.238  20.733  -4.618  0.00  0.00    -0.193 NA
ATOM      7  C6  TOP A 201     -15.075  22.009  -4.224  0.00  0.00    +0.170 A 
ATOM      8  N7  TOP A 201     -14.148  22.229  -3.277  0.00  0.00    -0.107 N 
ATOM      9  C8  TOP A 201     -15.770  23.074  -4.825  0.00  0.00    +0.036 A 
ATOM     10  H   TOP A 201     -16.970  18.975  -6.627  0.00  0.00    +0.000 HD
ATOM     11  H   TOP A 201     -15.834  18.499  -5.447  0.00  0.00    +0.000 HD
ATOM     12  H   TOP A 201     -13.673  21.471  -2.869  0.00  0.00    +0.000 HD
ATOM     13  H   TOP A 201     -13.944  23.149  -2.992  0.00  0.00    +0.000 HD
ENDBRANCH   1   9
BRANCH   1  14
ATOM     14  C10 TOP A 201     -14.688  25.360  -5.251  0.00  0.00    -0.011 A 
ATOM     15  C11 TOP A 201     -13.480  24.902  -5.784  0.00  0.00    +0.036 A 
ATOM     16  C12 TOP A 201     -12.687  25.743  -6.571  0.00  0.00    +0.175 A 
ATOM     17  C15 TOP A 201     -13.090  27.066  -6.822  0.00  0.00    +0.206 A 
ATOM     18  C18 TOP A 201     -14.309  27.495  -6.300  0.00  0.00    +0.175 A 
ATOM     19  C21 TOP A 201     -15.080  26.666  -5.505  0.00  0.00    +0.036 A 
BRANCH  16  20
ATOM     20  O13 TOP A 201     -11.496  25.383  -7.149  0.00  0.00    -0.468 OA
ATOM     21  C14 TOP A 201     -11.514  24.545  -8.303  0.00  0.00    +0.253 C 
ENDBRANCH  16  20
BRANCH  17  22
ATOM     22  O16 TOP A 201     -12.351  27.959  -7.590  0.00  0.00    -0.465 OA
ATOM     23  C17 TOP A 201     -11.295  28.689  -6.951  0.00  0.00    +0.253 C 
ENDBRANCH  17  22
BRANCH  18  24
ATOM     24  O19 TOP A 201     -14.629  28.790  -6.554  0.00  0.00    -0.468 OA
ATOM     25  C20 TOP A 201     -14.613  29.656  -5.426  0.00  0.00    +0.253 C 
ENDBRANCH  18  24
ENDBRANCH   1  14
TORSDOF 5
ENDMDL
MODEL 7
REMARK VINA RESULT:    -7.448      4.030      6.737
REMARK INTER + INTRA:          -9.938
REMARK INTER:                 -10.071
REMARK INTRA:                   0.134
REMARK UNBOUND:                -0.313
REMARK  Name = /mnt/c/Personal/tickdock/data/docking/counterdock_calibration/7NAE_lig_raw.pdb
REMARK  8 active torsions:
REMARK  status: ('A' for Active; 'I' for Inactive)
REMARK    1  A    between atoms: C8_8  and  C9_9
REMARK    2  A    between atoms: C9_9  and  C10_10
REMARK    3  A    between atoms: C12_12  and  O13_13
REMARK    4  A    between atoms: O13_13  and  C14_14
REMARK    5  A    between atoms: C15_15  and  O16_16
REMARK    6  A    between atoms: O16_16  and  C17_17
REMARK    7  A    between atoms: C18_18  and  O19_19
REMARK    8  A    between atoms: O19_19  and  C20_20
REMARK                            x       y       z     vdW  Elec       q    Type
REMARK                         _______ _______ _______ _____ _____    ______ ____
ROOT
ATOM      1  C9  TOP A 201     -16.802  24.731  -6.384  0.00  0.00    +0.057 C 
ENDROOT
BRANCH   1   9
ATOM      2  C1  TOP A 201     -15.709  22.580  -7.273  0.00  0.00    +0.101 A 
ATOM      3  N2  TOP A 201     -15.457  21.261  -7.226  0.00  0.00    -0.210 NA
ATOM      4  C3  TOP A 201     -16.055  20.556  -6.232  0.00  0.00    +0.258 A 
ATOM      5  N4  TOP A 201     -15.892  19.228  -6.192  0.00  0.00    -0.086 N 
ATOM      6  N5  TOP A 201     -16.830  21.096  -5.278  0.00  0.00    -0.193 NA
ATOM      7  C6  TOP A 201     -17.069  22.418  -5.342  0.00  0.00    +0.170 A 
ATOM      8  N7  TOP A 201     -17.811  22.940  -4.352  0.00  0.00    -0.107 N 
ATOM      9  C8  TOP A 201     -16.506  23.235  -6.339  0.00  0.00    +0.036 A 
ATOM     10  H   TOP A 201     -15.334  18.781  -6.869  0.00  0.00    +0.000 HD
ATOM     11  H   TOP A 201     -16.330  18.699  -5.487  0.00  0.00    +0.000 HD
ATOM     12  H   TOP A 201     -18.197  22.352  -3.663  0.00  0.00    +0.000 HD
ATOM     13  H   TOP A 201     -17.970  23.911  -4.314  0.00  0.00    +0.000 HD
ENDBRANCH   1   9
BRANCH   1  14
ATOM     14  C10 TOP A 201     -15.578  25.621  -6.482  0.00  0.00    -0.011 A 
ATOM     15  C11 TOP A 201     -14.309  25.130  -6.801  0.00  0.00    +0.036 A 
ATOM     16  C12 TOP A 201     -13.203  25.986  -6.833  0.00  0.00    +0.175 A 
ATOM     17  C15 TOP A 201     -13.355  27.350  -6.529  0.00  0.00    +0.206 A 
ATOM     18  C18 TOP A 201     -14.633  27.823  -6.236  0.00  0.00    +0.175 A 
ATOM     19  C21 TOP A 201     -15.720  26.968  -6.186  0.00  0.00    +0.036 A 
BRANCH  16  20
ATOM     20  O13 TOP A 201     -11.924  25.604  -7.147  0.00  0.00    -0.468 OA
ATOM     21  C14 TOP A 201     -11.731  24.489  -8.016  0.00  0.00    +0.253 C 
ENDBRANCH  16  20
BRANCH  17  22
ATOM     22  O16 TOP A 201     -12.302  28.258  -6.536  0.00  0.00    -0.465 OA
ATOM     23  C17 TOP A 201     -11.933  28.856  -7.786  0.00  0.00    +0.253 C 
ENDBRANCH  17  22
BRANCH  18  24
ATOM     24  O19 TOP A 201     -14.710  29.142  -5.924  0.00  0.00    -0.468 OA
ATOM     25  C20 TOP A 201     -15.386  29.957  -6.875  0.00  0.00    +0.253 C 
ENDBRANCH  18  24
ENDBRANCH   1  14
TORSDOF 5
ENDMDL
MODEL 8
REMARK VINA RESULT:    -7.437      4.030      6.216
REMARK INTER + INTRA:          -9.923
REMARK INTER:                  -9.438
REMARK INTRA:                  -0.486
REMARK UNBOUND:                -0.313
REMARK  Name = /mnt/c/Personal/tickdock/data/docking/counterdock_calibration/7NAE_lig_raw.pdb
REMARK  8 active torsions:
REMARK  status: ('A' for Active; 'I' for Inactive)
REMARK    1  A    between atoms: C8_8  and  C9_9
REMARK    2  A    between atoms: C9_9  and  C10_10
REMARK    3  A    between atoms: C12_12  and  O13_13
REMARK    4  A    between atoms: O13_13  and  C14_14
REMARK    5  A    between atoms: C15_15  and  O16_16
REMARK    6  A    between atoms: O16_16  and  C17_17
REMARK    7  A    between atoms: C18_18  and  O19_19
REMARK    8  A    between atoms: O19_19  and  C20_20
REMARK                            x       y       z     vdW  Elec       q    Type
REMARK                         _______ _______ _______ _____ _____    ______ ____
ROOT
ATOM      1  C9  TOP A 201     -15.810  24.509  -4.370  0.00  0.00    +0.057 C 
ENDROOT
BRANCH   1   9
ATOM      2  C1  TOP A 201     -16.715  22.683  -5.938  0.00  0.00    +0.101 A 
ATOM      3  N2  TOP A 201     -16.793  21.415  -6.377  0.00  0.00    -0.210 NA
ATOM      4  C3  TOP A 201     -16.063  20.487  -5.705  0.00  0.00    +0.258 A 
ATOM      5  N4  TOP A 201     -16.168  19.202  -6.060  0.00  0.00    -0.086 N 
ATOM      6  N5  TOP A 201     -15.242  20.764  -4.679  0.00  0.00    -0.193 NA
ATOM      7  C6  TOP A 201     -15.178  22.039  -4.257  0.00  0.00    +0.170 A 
ATOM      8  N7  TOP A 201     -14.318  22.296  -3.258  0.00  0.00    -0.107 N 
ATOM      9  C8  TOP A 201     -15.904  23.072  -4.877  0.00  0.00    +0.036 A 
ATOM     10  H   TOP A 201     -16.756  18.944  -6.806  0.00  0.00    +0.000 HD
ATOM     11  H   TOP A 201     -15.657  18.514  -5.575  0.00  0.00    +0.000 HD
ATOM     12  H   TOP A 201     -13.819  21.560  -2.836  0.00  0.00    +0.000 HD
ATOM     13  H   TOP A 201     -14.186  23.221  -2.947  0.00  0.00    +0.000 HD
ENDBRANCH   1   9
BRANCH   1  14
ATOM     14  C10 TOP A 201     -14.939  25.426  -5.207  0.00  0.00    -0.011 A 
ATOM     15  C11 TOP A 201     -15.310  26.734  -5.529  0.00  0.00    +0.036 A 
ATOM     16  C12 TOP A 201     -14.491  27.523  -6.344  0.00  0.00    +0.175 A 
ATOM     17  C15 TOP A 201     -13.292  27.002  -6.860  0.00  0.00    +0.206 A 
ATOM     18  C18 TOP A 201     -12.931  25.703  -6.507  0.00  0.00    +0.175 A 
ATOM     19  C21 TOP A 201     -13.754  24.920  -5.718  0.00  0.00    +0.036 A 
BRANCH  16  20
ATOM     20  O13 TOP A 201     -14.760  28.819  -6.705  0.00  0.00    -0.468 OA
ATOM     21  C14 TOP A 201     -14.658  29.845  -5.719  0.00  0.00    +0.253 C 
ENDBRANCH  16  20
BRANCH  17  22
ATOM     22  O16 TOP A 201     -12.432  27.726  -7.679  0.00  0.00    -0.465 OA
ATOM     23  C17 TOP A 201     -11.410  28.516  -7.056  0.00  0.00    +0.253 C 
ENDBRANCH  17  22
BRANCH  18  24
ATOM     24  O19 TOP A 201     -11.777  25.248  -7.059  0.00  0.00    -0.468 OA
ATOM     25  C20 TOP A 201     -11.908  24.102  -7.891  0.00  0.00    +0.253 C 
ENDBRANCH  18  24
ENDBRANCH   1  14
TORSDOF 5
ENDMDL
MODEL 9
REMARK VINA RESULT:    -7.410      2.152      3.653
REMARK INTER + INTRA:          -9.888
REMARK INTER:                  -9.778
REMARK INTRA:                  -0.111
REMARK UNBOUND:                -0.313
REMARK  Name = /mnt/c/Personal/tickdock/data/docking/counterdock_calibration/7NAE_lig_raw.pdb
REMARK  8 active torsions:
REMARK  status: ('A' for Active; 'I' for Inactive)
REMARK    1  A    between atoms: C8_8  and  C9_9
REMARK    2  A    between atoms: C9_9  and  C10_10
REMARK    3  A    between atoms: C12_12  and  O13_13
REMARK    4  A    between atoms: O13_13  and  C14_14
REMARK    5  A    between atoms: C15_15  and  O16_16
REMARK    6  A    between atoms: O16_16  and  C17_17
REMARK    7  A    between atoms: C18_18  and  O19_19
REMARK    8  A    between atoms: O19_19  and  C20_20
REMARK                            x       y       z     vdW  Elec       q    Type
REMARK                         _______ _______ _______ _____ _____    ______ ____
ROOT
ATOM      1  C9  TOP A 201     -15.633  26.933  -6.197  0.00  0.00    +0.057 C 
ENDROOT
BRANCH   1   9
ATOM      2  C1  TOP A 201     -13.448  26.298  -7.395  0.00  0.00    +0.101 A 
ATOM      3  N2  TOP A 201     -12.178  26.531  -7.766  0.00  0.00    -0.210 NA
ATOM      4  C3  TOP A 201     -11.608  27.679  -7.318  0.00  0.00    +0.258 A 
ATOM      5  N4  TOP A 201     -10.322  27.915  -7.601  0.00  0.00    -0.086 N 
ATOM      6  N5  TOP A 201     -12.243  28.605  -6.583  0.00  0.00    -0.193 NA
ATOM      7  C6  TOP A 201     -13.514  28.354  -6.224  0.00  0.00    +0.170 A 
ATOM      8  N7  TOP A 201     -14.140  29.316  -5.525  0.00  0.00    -0.107 N 
ATOM      9  C8  TOP A 201     -14.191  27.188  -6.626  0.00  0.00    +0.036 A 
ATOM     10  H   TOP A 201      -9.809  27.268  -8.137  0.00  0.00    +0.000 HD
ATOM     11  H   TOP A 201      -9.888  28.736  -7.272  0.00  0.00    +0.000 HD
ATOM     12  H   TOP A 201     -13.649  30.124  -5.253  0.00  0.00    +0.000 HD
ATOM     13  H   TOP A 201     -15.089  29.212  -5.286  0.00  0.00    +0.000 HD
ENDBRANCH   1   9
BRANCH   1  14
ATOM     14  C10 TOP A 201     -16.018  25.470  -6.089  0.00  0.00    -0.011 A 
ATOM     15  C11 TOP A 201     -17.108  24.922  -6.770  0.00  0.00    +0.036 A 
ATOM     16  C12 TOP A 201     -17.448  23.576  -6.599  0.00  0.00    +0.175 A 
ATOM     17  C15 TOP A 201     -16.705  22.763  -5.726  0.00  0.00    +0.206 A 
ATOM     18  C18 TOP A 201     -15.608  23.324  -5.075  0.00  0.00    +0.175 A 
ATOM     19  C21 TOP A 201     -15.288  24.661  -5.231  0.00  0.00    +0.036 A 
BRANCH  16  20
ATOM     20  O13 TOP A 201     -18.488  22.943  -7.231  0.00  0.00    -0.468 OA
ATOM     21  C14 TOP A 201     -19.746  23.609  -7.327  0.00  0.00    +0.253 C 
ENDBRANCH  16  20
BRANCH  17  22
ATOM     22  O16 TOP A 201     -16.987  21.420  -5.503  0.00  0.00    -0.465 OA
ATOM     23  C17 TOP A 201     -16.171  20.439  -6.159  0.00  0.00    +0.253 C 
ENDBRANCH  17  22
BRANCH  18  24
ATOM     24  O19 TOP A 201     -14.947  22.496  -4.225  0.00  0.00    -0.468 OA
ATOM     25  C20 TOP A 201     -13.607  22.870  -3.926  0.00  0.00    +0.253 C 
ENDBRANCH  18  24
ENDBRANCH   1  14
TORSDOF 5
ENDMDL
