REMARK  Name = /mnt/c/Personal/tickdock/data/docking/counterdock_calibration/7NAE_lig_raw.pdb
REMARK  8 active torsions:
REMARK  status: ('A' for Active; 'I' for Inactive)
REMARK    1  A    between atoms: C8_8  and  C9_9
REMARK    2  A    between atoms: C9_9  and  C10_10
REMARK    3  A    between atoms: C12_12  and  O13_13
REMARK    4  A    between atoms: O13_13  and  C14_14
REMARK    5  A    between atoms: C15_15  and  O16_16
REMARK    6  A    between atoms: O16_16  and  C17_17
REMARK    7  A    between atoms: C18_18  and  O19_19
REMARK    8  A    between atoms: O19_19  and  C20_20
REMARK                            x       y       z     vdW  Elec       q    Type
REMARK                         _______ _______ _______ _____ _____    ______ ____
ROOT
ATOM      1  C9  TOP A 201     -15.867  24.654  -4.915  0.00  0.00    +0.057 C 
ENDROOT
BRANCH   1   9
ATOM      2  C1  TOP A 201     -17.120  24.572  -7.159  0.00  0.00    +0.101 A 
ATOM      3  N2  TOP A 201     -18.172  24.245  -7.929  0.00  0.00    -0.210 NA
ATOM      4  C3  TOP A 201     -19.221  23.643  -7.312  0.00  0.00    +0.258 A 
ATOM      5  N4  TOP A 201     -20.319  23.368  -8.025  0.00  0.00    -0.086 N 
ATOM      6  N5  TOP A 201     -19.250  23.314  -6.011  0.00  0.00    -0.193 NA
ATOM      7  C6  TOP A 201     -18.187  23.649  -5.258  0.00  0.00    +0.170 A 
ATOM      8  N7  TOP A 201     -18.223  23.270  -3.970  0.00  0.00    -0.107 N 
ATOM      9  C8  TOP A 201     -17.055  24.285  -5.799  0.00  0.00    +0.036 A 
ATOM     10  H   TOP A 201     -20.351  23.589  -8.984  0.00  0.00    +0.000 HD
ATOM     11  H   TOP A 201     -21.095  22.945  -7.591  0.00  0.00    +0.000 HD
ATOM     12  H   TOP A 201     -19.024  22.826  -3.610  0.00  0.00    +0.000 HD
ATOM     13  H   TOP A 201     -17.448  23.436  -3.386  0.00  0.00    +0.000 HD
ENDBRANCH   1   9
BRANCH   1  14
ATOM     14  C10 TOP A 201     -14.812  25.510  -5.588  0.00  0.00    -0.011 A 
ATOM     15  C11 TOP A 201     -14.929  26.897  -5.712  0.00  0.00    +0.036 A 
ATOM     16  C12 TOP A 201     -13.949  27.635  -6.384  0.00  0.00    +0.175 A 
ATOM     17  C15 TOP A 201     -12.841  26.986  -6.956  0.00  0.00    +0.206 A 
ATOM     18  C18 TOP A 201     -12.733  25.605  -6.800  0.00  0.00    +0.175 A 
ATOM     19  C21 TOP A 201     -13.715  24.877  -6.153  0.00  0.00    +0.036 A 
BRANCH  16  20
ATOM     20  O13 TOP A 201     -13.966  28.997  -6.546  0.00  0.00    -0.468 OA
ATOM     21  C14 TOP A 201     -15.089  29.735  -6.067  0.00  0.00    +0.253 C 
ENDBRANCH  16  20
BRANCH  17  22
ATOM     22  O16 TOP A 201     -11.832  27.653  -7.641  0.00  0.00    -0.465 OA
ATOM     23  C17 TOP A 201     -12.129  28.942  -8.196  0.00  0.00    +0.253 C 
ENDBRANCH  17  22
BRANCH  18  24
ATOM     24  O19 TOP A 201     -11.656  25.033  -7.398  0.00  0.00    -0.468 OA
ATOM     25  C20 TOP A 201     -11.919  24.376  -8.632  0.00  0.00    +0.253 C 
ENDBRANCH  18  24
ENDBRANCH   1  14
TORSDOF 5
