MODEL 1
REMARK VINA RESULT:    -5.847      0.000      0.000
REMARK INTER + INTRA:          -9.952
REMARK INTER:                  -8.410
REMARK INTRA:                  -1.542
REMARK UNBOUND:                -1.542
REMARK SMILES CCCCc1nc2ccnc(O)c2n1Cc1ccc(-c2ccccc2-c2nn[nH]n2)cc1
REMARK SMILES IDX 5 1 6 2 7 3 8 4 9 5 10 6 11 7 13 8 14 9 4 10 3 11 2 12 1 13
REMARK SMILES IDX 15 14 16 15 17 16 32 17 18 18 31 19 19 20 20 21 21 22 25 23
REMARK SMILES IDX 22 24 24 25 23 26 26 27 27 28 30 29 28 30 29 31 12 33
REMARK H PARENT 29 32 12 34
ROOT
ATOM      1  C   UNL     1      25.844  20.236 -20.104  1.00  0.00     0.110 A 
ATOM      2  N   UNL     1      25.060  20.622 -19.115  1.00  0.00    -0.233 NA
ATOM      3  C   UNL     1      25.855  20.666 -17.999  1.00  0.00     0.096 A 
ATOM      4  C   UNL     1      25.529  21.026 -16.691  1.00  0.00     0.051 A 
ATOM      5  C   UNL     1      26.572  20.989 -15.778  1.00  0.00     0.117 A 
ATOM      6  N   UNL     1      27.848  20.642 -16.068  1.00  0.00    -0.220 NA
ATOM      7  C   UNL     1      28.136  20.297 -17.333  1.00  0.00     0.237 A 
ATOM      8  C   UNL     1      27.157  20.297 -18.306  1.00  0.00     0.131 A 
ATOM      9  N   UNL     1      27.125  19.990 -19.646  1.00  0.00    -0.319 N 
ENDROOT
BRANCH   1  10
ATOM     10  C   UNL     1      25.398  20.083 -21.524  1.00  0.00     0.075 C 
BRANCH  10  11
ATOM     11  C   UNL     1      24.899  18.662 -21.797  1.00  0.00     0.008 C 
BRANCH  11  12
ATOM     12  C   UNL     1      24.919  18.289 -23.280  1.00  0.00    -0.003 C 
ATOM     13  C   UNL     1      26.200  18.700 -23.991  1.00  0.00     0.004 C 
ENDBRANCH  11  12
ENDBRANCH  10  11
ENDBRANCH   1  10
BRANCH   9  14
ATOM     14  C   UNL     1      28.263  19.540 -20.436  1.00  0.00     0.159 C 
BRANCH  14  15
ATOM     15  C   UNL     1      29.030  20.676 -21.072  1.00  0.00    -0.028 A 
ATOM     16  C   UNL     1      29.860  21.523 -20.324  1.00  0.00     0.006 A 
ATOM     17  C   UNL     1      28.965  20.862 -22.460  1.00  0.00     0.006 A 
ATOM     18  C   UNL     1      30.594  22.537 -20.948  1.00  0.00     0.009 A 
ATOM     19  C   UNL     1      29.700  21.876 -23.083  1.00  0.00     0.009 A 
ATOM     20  C   UNL     1      30.530  22.722 -22.335  1.00  0.00    -0.018 A 
BRANCH  20  21
ATOM     21  C   UNL     1      31.298  23.793 -22.989  1.00  0.00    -0.007 A 
ATOM     22  C   UNL     1      30.776  25.104 -22.933  1.00  0.00     0.009 A 
ATOM     23  C   UNL     1      32.540  23.587 -23.635  1.00  0.00     0.031 A 
ATOM     24  C   UNL     1      31.459  26.186 -23.488  1.00  0.00     0.001 A 
ATOM     25  C   UNL     1      33.219  24.696 -24.182  1.00  0.00     0.013 A 
ATOM     26  C   UNL     1      32.684  25.983 -24.110  1.00  0.00     0.001 A 
BRANCH  23  27
ATOM     27  C   UNL     1      33.153  22.268 -23.775  1.00  0.00     0.205 A 
ATOM     28  N   UNL     1      32.966  21.442 -24.862  1.00  0.00    -0.108 NA
ATOM     29  N   UNL     1      34.010  21.736 -22.880  1.00  0.00    -0.134 NA
ATOM     30  N   UNL     1      33.692  20.354 -24.654  1.00  0.00    -0.050 NA
ATOM     31  N   UNL     1      34.285  20.569 -23.478  1.00  0.00    -0.177 N 
ATOM     32  H   UNL     1      34.912  19.885 -23.065  1.00  0.00     0.216 HD
ENDBRANCH  23  27
ENDBRANCH  20  21
ENDBRANCH  14  15
ENDBRANCH   9  14
BRANCH   7  33
ATOM     33  O   UNL     1      29.441  19.982 -17.556  1.00  0.00    -0.492 OA
ATOM     34  H   UNL     1      29.397  19.019 -17.414  1.00  0.00     0.295 HD
ENDBRANCH   7  33
TORSDOF 8
ENDMDL
MODEL 2
REMARK VINA RESULT:    -5.672      6.229      9.988
REMARK INTER + INTRA:          -9.700
REMARK INTER:                  -7.254
REMARK INTRA:                  -2.446
REMARK UNBOUND:                -1.542
REMARK SMILES CCCCc1nc2ccnc(O)c2n1Cc1ccc(-c2ccccc2-c2nn[nH]n2)cc1
REMARK SMILES IDX 5 1 6 2 7 3 8 4 9 5 10 6 11 7 13 8 14 9 4 10 3 11 2 12 1 13
REMARK SMILES IDX 15 14 16 15 17 16 32 17 18 18 31 19 19 20 20 21 21 22 25 23
REMARK SMILES IDX 22 24 24 25 23 26 26 27 27 28 30 29 28 30 29 31 12 33
REMARK H PARENT 29 32 12 34
ROOT
ATOM      1  C   UNL     1      36.817  29.409 -18.965  1.00  0.00     0.110 A 
ATOM      2  N   UNL     1      36.796  30.728 -19.019  1.00  0.00    -0.233 NA
ATOM      3  C   UNL     1      35.820  31.125 -18.142  1.00  0.00     0.096 A 
ATOM      4  C   UNL     1      35.399  32.412 -17.807  1.00  0.00     0.051 A 
ATOM      5  C   UNL     1      34.390  32.489 -16.859  1.00  0.00     0.117 A 
ATOM      6  N   UNL     1      33.811  31.426 -16.252  1.00  0.00    -0.220 NA
ATOM      7  C   UNL     1      34.230  30.197 -16.594  1.00  0.00     0.237 A 
ATOM      8  C   UNL     1      35.225  30.027 -17.536  1.00  0.00     0.131 A 
ATOM      9  N   UNL     1      35.848  28.938 -18.100  1.00  0.00    -0.319 N 
ENDROOT
BRANCH   1  10
ATOM     10  C   UNL     1      37.763  28.548 -19.743  1.00  0.00     0.075 C 
BRANCH  10  11
ATOM     11  C   UNL     1      37.350  28.463 -21.214  1.00  0.00     0.008 C 
BRANCH  11  12
ATOM     12  C   UNL     1      37.098  27.030 -21.689  1.00  0.00    -0.003 C 
ATOM     13  C   UNL     1      37.639  25.974 -20.737  1.00  0.00     0.004 C 
ENDBRANCH  11  12
ENDBRANCH  10  11
ENDBRANCH   1  10
BRANCH   9  14
ATOM     14  C   UNL     1      35.559  27.546 -17.786  1.00  0.00     0.159 C 
BRANCH  14  15
ATOM     15  C   UNL     1      34.650  26.887 -18.798  1.00  0.00    -0.028 A 
ATOM     16  C   UNL     1      33.989  27.621 -19.793  1.00  0.00     0.006 A 
ATOM     17  C   UNL     1      34.503  25.492 -18.791  1.00  0.00     0.006 A 
ATOM     18  C   UNL     1      33.192  26.978 -20.746  1.00  0.00     0.009 A 
ATOM     19  C   UNL     1      33.706  24.850 -19.744  1.00  0.00     0.009 A 
ATOM     20  C   UNL     1      33.046  25.584 -20.738  1.00  0.00    -0.018 A 
BRANCH  20  21
ATOM     21  C   UNL     1      32.202  24.910 -21.737  1.00  0.00    -0.007 A 
ATOM     22  C   UNL     1      30.822  24.797 -21.462  1.00  0.00     0.009 A 
ATOM     23  C   UNL     1      32.690  24.403 -22.964  1.00  0.00     0.031 A 
ATOM     24  C   UNL     1      29.941  24.211 -22.372  1.00  0.00     0.001 A 
ATOM     25  C   UNL     1      31.783  23.822 -23.874  1.00  0.00     0.013 A 
ATOM     26  C   UNL     1      30.421  23.727 -23.582  1.00  0.00     0.001 A 
BRANCH  23  27
ATOM     27  C   UNL     1      34.105  24.441 -23.333  1.00  0.00     0.205 A 
ATOM     28  N   UNL     1      35.054  23.573 -22.839  1.00  0.00    -0.108 NA
ATOM     29  N   UNL     1      34.625  25.297 -24.236  1.00  0.00    -0.134 NA
ATOM     30  N   UNL     1      36.206  23.889 -23.412  1.00  0.00    -0.050 NA
ATOM     31  N   UNL     1      35.907  24.907 -24.222  1.00  0.00    -0.177 N 
ATOM     32  H   UNL     1      36.615  25.356 -24.796  1.00  0.00     0.216 HD
ENDBRANCH  23  27
ENDBRANCH  20  21
ENDBRANCH  14  15
ENDBRANCH   9  14
BRANCH   7  33
ATOM     33  O   UNL     1      33.620  29.180 -15.929  1.00  0.00    -0.492 OA
ATOM     34  H   UNL     1      34.286  28.481 -16.065  1.00  0.00     0.295 HD
ENDBRANCH   7  33
TORSDOF 8
ENDMDL
MODEL 3
REMARK VINA RESULT:    -5.603      1.742      3.963
REMARK INTER + INTRA:          -9.601
REMARK INTER:                  -8.218
REMARK INTRA:                  -1.384
REMARK UNBOUND:                -1.542
REMARK SMILES CCCCc1nc2ccnc(O)c2n1Cc1ccc(-c2ccccc2-c2nn[nH]n2)cc1
REMARK SMILES IDX 5 1 6 2 7 3 8 4 9 5 10 6 11 7 13 8 14 9 4 10 3 11 2 12 1 13
REMARK SMILES IDX 15 14 16 15 17 16 32 17 18 18 31 19 19 20 20 21 21 22 25 23
REMARK SMILES IDX 22 24 24 25 23 26 26 27 27 28 30 29 28 30 29 31 12 33
REMARK H PARENT 29 32 12 34
ROOT
ATOM      1  C   UNL     1      26.589  20.905 -18.838  1.00  0.00     0.110 A 
ATOM      2  N   UNL     1      25.443  20.853 -19.491  1.00  0.00    -0.233 NA
ATOM      3  C   UNL     1      25.694  20.144 -20.637  1.00  0.00     0.096 A 
ATOM      4  C   UNL     1      24.825  19.790 -21.669  1.00  0.00     0.051 A 
ATOM      5  C   UNL     1      25.382  19.044 -22.697  1.00  0.00     0.117 A 
ATOM      6  N   UNL     1      26.675  18.645 -22.756  1.00  0.00    -0.220 NA
ATOM      7  C   UNL     1      27.493  19.003 -21.753  1.00  0.00     0.237 A 
ATOM      8  C   UNL     1      27.025  19.753 -20.693  1.00  0.00     0.131 A 
ATOM      9  N   UNL     1      27.590  20.277 -19.555  1.00  0.00    -0.319 N 
ENDROOT
BRANCH   1  10
ATOM     10  C   UNL     1      26.771  21.560 -17.504  1.00  0.00     0.075 C 
BRANCH  10  11
ATOM     11  C   UNL     1      25.539  21.359 -16.618  1.00  0.00     0.008 C 
BRANCH  11  12
ATOM     12  C   UNL     1      25.873  20.775 -15.243  1.00  0.00    -0.003 C 
ATOM     13  C   UNL     1      25.139  21.461 -14.100  1.00  0.00     0.004 C 
ENDBRANCH  11  12
ENDBRANCH  10  11
ENDBRANCH   1  10
BRANCH   9  14
ATOM     14  C   UNL     1      28.987  20.139 -19.166  1.00  0.00     0.159 C 
BRANCH  14  15
ATOM     15  C   UNL     1      29.878  21.199 -19.771  1.00  0.00    -0.028 A 
ATOM     16  C   UNL     1      29.410  22.103 -20.734  1.00  0.00     0.006 A 
ATOM     17  C   UNL     1      31.199  21.331 -19.320  1.00  0.00     0.006 A 
ATOM     18  C   UNL     1      30.245  23.104 -21.242  1.00  0.00     0.009 A 
ATOM     19  C   UNL     1      32.034  22.332 -19.827  1.00  0.00     0.009 A 
ATOM     20  C   UNL     1      31.564  23.236 -20.790  1.00  0.00    -0.018 A 
BRANCH  20  21
ATOM     21  C   UNL     1      32.444  24.285 -21.329  1.00  0.00    -0.007 A 
ATOM     22  C   UNL     1      32.482  25.523 -20.650  1.00  0.00     0.009 A 
ATOM     23  C   UNL     1      33.272  24.110 -22.462  1.00  0.00     0.031 A 
ATOM     24  C   UNL     1      33.320  26.558 -21.066  1.00  0.00     0.001 A 
ATOM     25  C   UNL     1      34.118  25.166 -22.861  1.00  0.00     0.013 A 
ATOM     26  C   UNL     1      34.142  26.378 -22.171  1.00  0.00     0.001 A 
BRANCH  23  27
ATOM     27  C   UNL     1      33.286  22.881 -23.254  1.00  0.00     0.205 A 
ATOM     28  N   UNL     1      32.366  22.587 -24.237  1.00  0.00    -0.108 NA
ATOM     29  N   UNL     1      34.231  21.925 -23.145  1.00  0.00    -0.134 NA
ATOM     30  N   UNL     1      32.707  21.414 -24.751  1.00  0.00    -0.050 NA
ATOM     31  N   UNL     1      33.805  21.062 -24.078  1.00  0.00    -0.177 N 
ATOM     32  H   UNL     1      34.289  20.190 -24.269  1.00  0.00     0.216 HD
ENDBRANCH  23  27
ENDBRANCH  20  21
ENDBRANCH  14  15
ENDBRANCH   9  14
BRANCH   7  33
ATOM     33  O   UNL     1      28.770  18.549 -21.869  1.00  0.00    -0.492 OA
ATOM     34  H   UNL     1      29.210  19.381 -22.124  1.00  0.00     0.295 HD
ENDBRANCH   7  33
TORSDOF 8
ENDMDL
MODEL 4
REMARK VINA RESULT:    -5.600      2.692      4.772
REMARK INTER + INTRA:          -9.598
REMARK INTER:                  -7.944
REMARK INTRA:                  -1.653
REMARK UNBOUND:                -1.542
REMARK SMILES CCCCc1nc2ccnc(O)c2n1Cc1ccc(-c2ccccc2-c2nn[nH]n2)cc1
REMARK SMILES IDX 5 1 6 2 7 3 8 4 9 5 10 6 11 7 13 8 14 9 4 10 3 11 2 12 1 13
REMARK SMILES IDX 15 14 16 15 17 16 32 17 18 18 31 19 19 20 20 21 21 22 25 23
REMARK SMILES IDX 22 24 24 25 23 26 26 27 27 28 30 29 28 30 29 31 12 33
REMARK H PARENT 29 32 12 34
ROOT
ATOM      1  C   UNL     1      26.198  18.971 -20.763  1.00  0.00     0.110 A 
ATOM      2  N   UNL     1      25.179  18.963 -21.601  1.00  0.00    -0.233 NA
ATOM      3  C   UNL     1      25.710  18.705 -22.838  1.00  0.00     0.096 A 
ATOM      4  C   UNL     1      25.068  18.577 -24.070  1.00  0.00     0.051 A 
ATOM      5  C   UNL     1      25.888  18.291 -25.150  1.00  0.00     0.117 A 
ATOM      6  N   UNL     1      27.230  18.128 -25.086  1.00  0.00    -0.220 NA
ATOM      7  C   UNL     1      27.826  18.261 -23.890  1.00  0.00     0.237 A 
ATOM      8  C   UNL     1      27.087  18.553 -22.761  1.00  0.00     0.131 A 
ATOM      9  N   UNL     1      27.387  18.762 -21.436  1.00  0.00    -0.319 N 
ENDROOT
BRANCH   1  10
ATOM     10  C   UNL     1      26.075  19.182 -19.286  1.00  0.00     0.075 C 
BRANCH  10  11
ATOM     11  C   UNL     1      25.500  20.566 -18.972  1.00  0.00     0.008 C 
BRANCH  11  12
ATOM     12  C   UNL     1      26.277  21.310 -17.884  1.00  0.00    -0.003 C 
ATOM     13  C   UNL     1      25.613  21.247 -16.517  1.00  0.00     0.004 C 
ENDBRANCH  11  12
ENDBRANCH  10  11
ENDBRANCH   1  10
BRANCH   9  14
ATOM     14  C   UNL     1      28.722  18.713 -20.855  1.00  0.00     0.159 C 
BRANCH  14  15
ATOM     15  C   UNL     1      29.453  20.033 -20.940  1.00  0.00    -0.028 A 
ATOM     16  C   UNL     1      30.516  20.240 -21.831  1.00  0.00     0.006 A 
ATOM     17  C   UNL     1      29.026  21.112 -20.151  1.00  0.00     0.006 A 
ATOM     18  C   UNL     1      31.142  21.487 -21.920  1.00  0.00     0.009 A 
ATOM     19  C   UNL     1      29.652  22.359 -20.242  1.00  0.00     0.009 A 
ATOM     20  C   UNL     1      30.714  22.564 -21.132  1.00  0.00    -0.018 A 
BRANCH  20  21
ATOM     21  C   UNL     1      31.378  23.874 -21.223  1.00  0.00    -0.007 A 
ATOM     22  C   UNL     1      30.838  24.823 -22.118  1.00  0.00     0.009 A 
ATOM     23  C   UNL     1      32.498  24.242 -20.442  1.00  0.00     0.031 A 
ATOM     24  C   UNL     1      31.377  26.104 -22.236  1.00  0.00     0.001 A 
ATOM     25  C   UNL     1      33.023  25.545 -20.570  1.00  0.00     0.013 A 
ATOM     26  C   UNL     1      32.469  26.468 -21.458  1.00  0.00     0.001 A 
BRANCH  23  27
ATOM     27  C   UNL     1      33.152  23.326 -19.509  1.00  0.00     0.205 A 
ATOM     28  N   UNL     1      34.124  22.420 -19.872  1.00  0.00    -0.108 NA
ATOM     29  N   UNL     1      32.912  23.304 -18.182  1.00  0.00    -0.134 NA
ATOM     30  N   UNL     1      34.498  21.788 -18.769  1.00  0.00    -0.050 NA
ATOM     31  N   UNL     1      33.759  22.337 -17.803  1.00  0.00    -0.177 N 
ATOM     32  H   UNL     1      33.840  22.038 -16.835  1.00  0.00     0.216 HD
ENDBRANCH  23  27
ENDBRANCH  20  21
ENDBRANCH  14  15
ENDBRANCH   9  14
BRANCH   7  33
ATOM     33  O   UNL     1      29.172  18.062 -23.897  1.00  0.00    -0.492 OA
ATOM     34  H   UNL     1      29.318  18.007 -24.859  1.00  0.00     0.295 HD
ENDBRANCH   7  33
TORSDOF 8
ENDMDL
MODEL 5
REMARK VINA RESULT:    -5.588      2.267      7.517
REMARK INTER + INTRA:          -9.579
REMARK INTER:                  -7.253
REMARK INTRA:                  -2.326
REMARK UNBOUND:                -1.542
REMARK SMILES CCCCc1nc2ccnc(O)c2n1Cc1ccc(-c2ccccc2-c2nn[nH]n2)cc1
REMARK SMILES IDX 5 1 6 2 7 3 8 4 9 5 10 6 11 7 13 8 14 9 4 10 3 11 2 12 1 13
REMARK SMILES IDX 15 14 16 15 17 16 32 17 18 18 31 19 19 20 20 21 21 22 25 23
REMARK SMILES IDX 22 24 24 25 23 26 26 27 27 28 30 29 28 30 29 31 12 33
REMARK H PARENT 29 32 12 34
ROOT
ATOM      1  C   UNL     1      28.229  20.172 -22.763  1.00  0.00     0.110 A 
ATOM      2  N   UNL     1      28.436  21.192 -23.575  1.00  0.00    -0.233 NA
ATOM      3  C   UNL     1      29.627  21.748 -23.186  1.00  0.00     0.096 A 
ATOM      4  C   UNL     1      30.312  22.840 -23.719  1.00  0.00     0.051 A 
ATOM      5  C   UNL     1      31.518  23.150 -23.109  1.00  0.00     0.117 A 
ATOM      6  N   UNL     1      32.059  22.477 -22.067  1.00  0.00    -0.220 NA
ATOM      7  C   UNL     1      31.378  21.432 -21.569  1.00  0.00     0.237 A 
ATOM      8  C   UNL     1      30.164  21.058 -22.108  1.00  0.00     0.131 A 
ATOM      9  N   UNL     1      29.242  20.077 -21.828  1.00  0.00    -0.319 N 
ENDROOT
BRANCH   1  10
ATOM     10  C   UNL     1      27.051  19.251 -22.849  1.00  0.00     0.075 C 
BRANCH  10  11
ATOM     11  C   UNL     1      25.798  19.901 -22.257  1.00  0.00     0.008 C 
BRANCH  11  12
ATOM     12  C   UNL     1      25.360  19.270 -20.933  1.00  0.00    -0.003 C 
ATOM     13  C   UNL     1      24.772  20.272 -19.951  1.00  0.00     0.004 C 
ENDBRANCH  11  12
ENDBRANCH  10  11
ENDBRANCH   1  10
BRANCH   9  14
ATOM     14  C   UNL     1      29.357  19.090 -20.764  1.00  0.00     0.159 C 
BRANCH  14  15
ATOM     15  C   UNL     1      28.727  19.541 -19.466  1.00  0.00    -0.028 A 
ATOM     16  C   UNL     1      28.504  18.658 -18.401  1.00  0.00     0.006 A 
ATOM     17  C   UNL     1      28.408  20.895 -19.287  1.00  0.00     0.006 A 
ATOM     18  C   UNL     1      27.963  19.115 -17.195  1.00  0.00     0.009 A 
ATOM     19  C   UNL     1      27.867  21.351 -18.081  1.00  0.00     0.009 A 
ATOM     20  C   UNL     1      27.644  20.468 -17.016  1.00  0.00    -0.018 A 
BRANCH  20  21
ATOM     21  C   UNL     1      27.069  20.946 -15.749  1.00  0.00    -0.007 A 
ATOM     22  C   UNL     1      25.663  20.953 -15.628  1.00  0.00     0.009 A 
ATOM     23  C   UNL     1      27.846  21.362 -14.642  1.00  0.00     0.031 A 
ATOM     24  C   UNL     1      25.034  21.349 -14.448  1.00  0.00     0.001 A 
ATOM     25  C   UNL     1      27.191  21.750 -13.455  1.00  0.00     0.013 A 
ATOM     26  C   UNL     1      25.799  21.744 -13.358  1.00  0.00     0.001 A 
BRANCH  23  27
ATOM     27  C   UNL     1      29.306  21.421 -14.673  1.00  0.00     0.205 A 
ATOM     28  N   UNL     1      30.024  22.520 -15.092  1.00  0.00    -0.108 NA
ATOM     29  N   UNL     1      30.109  20.426 -14.247  1.00  0.00    -0.134 NA
ATOM     30  N   UNL     1      31.307  22.221 -14.957  1.00  0.00    -0.050 NA
ATOM     31  N   UNL     1      31.310  20.982 -14.460  1.00  0.00    -0.177 N 
ATOM     32  H   UNL     1      32.177  20.493 -14.254  1.00  0.00     0.216 HD
ENDBRANCH  23  27
ENDBRANCH  20  21
ENDBRANCH  14  15
ENDBRANCH   9  14
BRANCH   7  33
ATOM     33  O   UNL     1      31.991  20.790 -20.538  1.00  0.00    -0.492 OA
ATOM     34  H   UNL     1      32.545  21.519 -20.205  1.00  0.00     0.295 HD
ENDBRANCH   7  33
TORSDOF 8
ENDMDL
MODEL 6
REMARK VINA RESULT:    -5.572      2.209      7.856
REMARK INTER + INTRA:          -9.557
REMARK INTER:                  -7.101
REMARK INTRA:                  -2.457
REMARK UNBOUND:                -1.542
REMARK SMILES CCCCc1nc2ccnc(O)c2n1Cc1ccc(-c2ccccc2-c2nn[nH]n2)cc1
REMARK SMILES IDX 5 1 6 2 7 3 8 4 9 5 10 6 11 7 13 8 14 9 4 10 3 11 2 12 1 13
REMARK SMILES IDX 15 14 16 15 17 16 32 17 18 18 31 19 19 20 20 21 21 22 25 23
REMARK SMILES IDX 22 24 24 25 23 26 26 27 27 28 30 29 28 30 29 31 12 33
REMARK H PARENT 29 32 12 34
ROOT
ATOM      1  C   UNL     1      33.532  22.635 -22.896  1.00  0.00     0.110 A 
ATOM      2  N   UNL     1      33.839  23.826 -23.377  1.00  0.00    -0.233 NA
ATOM      3  C   UNL     1      33.962  24.651 -22.289  1.00  0.00     0.096 A 
ATOM      4  C   UNL     1      34.287  26.007 -22.236  1.00  0.00     0.051 A 
ATOM      5  C   UNL     1      34.352  26.562 -20.968  1.00  0.00     0.117 A 
ATOM      6  N   UNL     1      34.134  25.890 -19.813  1.00  0.00    -0.220 NA
ATOM      7  C   UNL     1      33.818  24.587 -19.890  1.00  0.00     0.237 A 
ATOM      8  C   UNL     1      33.722  23.955 -21.113  1.00  0.00     0.131 A 
ATOM      9  N   UNL     1      33.414  22.678 -21.520  1.00  0.00    -0.319 N 
ENDROOT
BRANCH   1  10
ATOM     10  C   UNL     1      33.336  21.411 -23.736  1.00  0.00     0.075 C 
BRANCH  10  11
ATOM     11  C   UNL     1      32.197  21.606 -24.739  1.00  0.00     0.008 C 
BRANCH  11  12
ATOM     12  C   UNL     1      30.809  21.473 -24.109  1.00  0.00    -0.003 C 
ATOM     13  C   UNL     1      30.047  22.787 -24.040  1.00  0.00     0.004 C 
ENDBRANCH  11  12
ENDBRANCH  10  11
ENDBRANCH   1  10
BRANCH   9  14
ATOM     14  C   UNL     1      33.078  21.569 -20.638  1.00  0.00     0.159 C 
BRANCH  14  15
ATOM     15  C   UNL     1      31.595  21.287 -20.580  1.00  0.00    -0.028 A 
ATOM     16  C   UNL     1      30.648  22.309 -20.425  1.00  0.00     0.006 A 
ATOM     17  C   UNL     1      31.134  19.973 -20.747  1.00  0.00     0.006 A 
ATOM     18  C   UNL     1      29.280  22.023 -20.423  1.00  0.00     0.009 A 
ATOM     19  C   UNL     1      29.765  19.687 -20.745  1.00  0.00     0.009 A 
ATOM     20  C   UNL     1      28.819  20.710 -20.590  1.00  0.00    -0.018 A 
BRANCH  20  21
ATOM     21  C   UNL     1      27.379  20.409 -20.581  1.00  0.00    -0.007 A 
ATOM     22  C   UNL     1      26.759  20.131 -21.818  1.00  0.00     0.009 A 
ATOM     23  C   UNL     1      26.597  20.349 -19.404  1.00  0.00     0.031 A 
ATOM     24  C   UNL     1      25.408  19.793 -21.898  1.00  0.00     0.001 A 
ATOM     25  C   UNL     1      25.235  19.997 -19.505  1.00  0.00     0.013 A 
ATOM     26  C   UNL     1      24.645  19.722 -20.740  1.00  0.00     0.001 A 
BRANCH  23  27
ATOM     27  C   UNL     1      27.133  20.648 -18.077  1.00  0.00     0.205 A 
ATOM     28  N   UNL     1      27.755  19.721 -17.270  1.00  0.00    -0.108 NA
ATOM     29  N   UNL     1      27.123  21.876 -17.520  1.00  0.00    -0.134 NA
ATOM     30  N   UNL     1      28.129  20.353 -16.167  1.00  0.00    -0.050 NA
ATOM     31  N   UNL     1      27.735  21.615 -16.357  1.00  0.00    -0.177 N 
ATOM     32  H   UNL     1      27.896  22.333 -15.657  1.00  0.00     0.216 HD
ENDBRANCH  23  27
ENDBRANCH  20  21
ENDBRANCH  14  15
ENDBRANCH   9  14
BRANCH   7  33
ATOM     33  O   UNL     1      33.634  23.973 -18.690  1.00  0.00    -0.492 OA
ATOM     34  H   UNL     1      33.582  24.759 -18.116  1.00  0.00     0.295 HD
ENDBRANCH   7  33
TORSDOF 8
ENDMDL
MODEL 7
REMARK VINA RESULT:    -5.540      6.710     10.612
REMARK INTER + INTRA:          -9.511
REMARK INTER:                  -7.123
REMARK INTRA:                  -2.388
REMARK UNBOUND:                -1.542
REMARK SMILES CCCCc1nc2ccnc(O)c2n1Cc1ccc(-c2ccccc2-c2nn[nH]n2)cc1
REMARK SMILES IDX 5 1 6 2 7 3 8 4 9 5 10 6 11 7 13 8 14 9 4 10 3 11 2 12 1 13
REMARK SMILES IDX 15 14 16 15 17 16 32 17 18 18 31 19 19 20 20 21 21 22 25 23
REMARK SMILES IDX 22 24 24 25 23 26 26 27 27 28 30 29 28 30 29 31 12 33
REMARK H PARENT 29 32 12 34
ROOT
ATOM      1  C   UNL     1      37.727  28.539 -18.400  1.00  0.00     0.110 A 
ATOM      2  N   UNL     1      37.861  29.083 -17.204  1.00  0.00    -0.233 NA
ATOM      3  C   UNL     1      37.104  30.226 -17.224  1.00  0.00     0.096 A 
ATOM      4  C   UNL     1      36.887  31.163 -16.213  1.00  0.00     0.051 A 
ATOM      5  C   UNL     1      36.044  32.215 -16.538  1.00  0.00     0.117 A 
ATOM      6  N   UNL     1      35.432  32.381 -17.733  1.00  0.00    -0.220 NA
ATOM      7  C   UNL     1      35.659  31.468 -18.691  1.00  0.00     0.237 A 
ATOM      8  C   UNL     1      36.492  30.392 -18.459  1.00  0.00     0.131 A 
ATOM      9  N   UNL     1      36.929  29.326 -19.209  1.00  0.00    -0.319 N 
ENDROOT
BRANCH   1  10
ATOM     10  C   UNL     1      38.360  27.248 -18.815  1.00  0.00     0.075 C 
BRANCH  10  11
ATOM     11  C   UNL     1      37.830  26.080 -17.980  1.00  0.00     0.008 C 
BRANCH  11  12
ATOM     12  C   UNL     1      36.336  25.819 -18.186  1.00  0.00    -0.003 C 
ATOM     13  C   UNL     1      35.480  26.229 -16.998  1.00  0.00     0.004 C 
ENDBRANCH  11  12
ENDBRANCH  10  11
ENDBRANCH   1  10
BRANCH   9  14
ATOM     14  C   UNL     1      36.562  29.062 -20.594  1.00  0.00     0.159 C 
BRANCH  14  15
ATOM     15  C   UNL     1      35.417  28.085 -20.727  1.00  0.00    -0.028 A 
ATOM     16  C   UNL     1      34.199  28.270 -20.057  1.00  0.00     0.006 A 
ATOM     17  C   UNL     1      35.541  26.988 -21.591  1.00  0.00     0.006 A 
ATOM     18  C   UNL     1      33.141  27.374 -20.237  1.00  0.00     0.009 A 
ATOM     19  C   UNL     1      34.482  26.092 -21.771  1.00  0.00     0.009 A 
ATOM     20  C   UNL     1      33.266  26.278 -21.101  1.00  0.00    -0.018 A 
BRANCH  20  21
ATOM     21  C   UNL     1      32.153  25.332 -21.284  1.00  0.00    -0.007 A 
ATOM     22  C   UNL     1      31.077  25.736 -22.103  1.00  0.00     0.009 A 
ATOM     23  C   UNL     1      32.122  24.037 -20.717  1.00  0.00     0.031 A 
ATOM     24  C   UNL     1      30.001  24.887 -22.367  1.00  0.00     0.001 A 
ATOM     25  C   UNL     1      31.031  23.190 -21.003  1.00  0.00     0.013 A 
ATOM     26  C   UNL     1      29.980  23.611 -21.819  1.00  0.00     0.001 A 
BRANCH  23  27
ATOM     27  C   UNL     1      33.170  23.532 -19.831  1.00  0.00     0.205 A 
ATOM     28  N   UNL     1      34.304  22.884 -20.269  1.00  0.00    -0.108 NA
ATOM     29  N   UNL     1      33.165  23.691 -18.491  1.00  0.00    -0.134 NA
ATOM     30  N   UNL     1      35.028  22.599 -19.197  1.00  0.00    -0.050 NA
ATOM     31  N   UNL     1      34.321  23.089 -18.177  1.00  0.00    -0.177 N 
ATOM     32  H   UNL     1      34.646  23.011 -17.217  1.00  0.00     0.216 HD
ENDBRANCH  23  27
ENDBRANCH  20  21
ENDBRANCH  14  15
ENDBRANCH   9  14
BRANCH   7  33
ATOM     33  O   UNL     1      34.995  31.686 -19.858  1.00  0.00    -0.492 OA
ATOM     34  H   UNL     1      34.103  31.853 -19.502  1.00  0.00     0.295 HD
ENDBRANCH   7  33
TORSDOF 8
ENDMDL
MODEL 8
REMARK VINA RESULT:    -5.398      4.667      7.412
REMARK INTER + INTRA:          -9.307
REMARK INTER:                  -7.160
REMARK INTRA:                  -2.147
REMARK UNBOUND:                -1.542
REMARK SMILES CCCCc1nc2ccnc(O)c2n1Cc1ccc(-c2ccccc2-c2nn[nH]n2)cc1
REMARK SMILES IDX 5 1 6 2 7 3 8 4 9 5 10 6 11 7 13 8 14 9 4 10 3 11 2 12 1 13
REMARK SMILES IDX 15 14 16 15 17 16 32 17 18 18 31 19 19 20 20 21 21 22 25 23
REMARK SMILES IDX 22 24 24 25 23 26 26 27 27 28 30 29 28 30 29 31 12 33
REMARK H PARENT 29 32 12 34
ROOT
ATOM      1  C   UNL     1      30.977  22.612 -22.564  1.00  0.00     0.110 A 
ATOM      2  N   UNL     1      30.471  22.288 -23.740  1.00  0.00    -0.233 NA
ATOM      3  C   UNL     1      31.376  21.436 -24.318  1.00  0.00     0.096 A 
ATOM      4  C   UNL     1      31.322  20.791 -25.554  1.00  0.00     0.051 A 
ATOM      5  C   UNL     1      32.396  19.966 -25.850  1.00  0.00     0.117 A 
ATOM      6  N   UNL     1      33.457  19.749 -25.038  1.00  0.00    -0.220 NA
ATOM      7  C   UNL     1      33.488  20.384 -23.856  1.00  0.00     0.237 A 
ATOM      8  C   UNL     1      32.465  21.232 -23.482  1.00  0.00     0.131 A 
ATOM      9  N   UNL     1      32.212  22.018 -22.382  1.00  0.00    -0.319 N 
ENDROOT
BRANCH   1  10
ATOM     10  C   UNL     1      30.301  23.505 -21.571  1.00  0.00     0.075 C 
BRANCH  10  11
ATOM     11  C   UNL     1      29.896  24.835 -22.211  1.00  0.00     0.008 C 
BRANCH  11  12
ATOM     12  C   UNL     1      31.028  25.864 -22.232  1.00  0.00    -0.003 C 
ATOM     13  C   UNL     1      31.508  26.208 -23.634  1.00  0.00     0.004 C 
ENDBRANCH  11  12
ENDBRANCH  10  11
ENDBRANCH   1  10
BRANCH   9  14
ATOM     14  C   UNL     1      33.080  22.146 -21.219  1.00  0.00     0.159 C 
BRANCH  14  15
ATOM     15  C   UNL     1      33.634  23.541 -21.045  1.00  0.00    -0.028 A 
ATOM     16  C   UNL     1      34.262  24.228 -22.093  1.00  0.00     0.006 A 
ATOM     17  C   UNL     1      33.468  24.202 -19.820  1.00  0.00     0.006 A 
ATOM     18  C   UNL     1      34.724  25.536 -21.915  1.00  0.00     0.009 A 
ATOM     19  C   UNL     1      33.929  25.511 -19.643  1.00  0.00     0.009 A 
ATOM     20  C   UNL     1      34.557  26.197 -20.691  1.00  0.00    -0.018 A 
BRANCH  20  21
ATOM     21  C   UNL     1      35.048  27.571 -20.503  1.00  0.00    -0.007 A 
ATOM     22  C   UNL     1      34.118  28.551 -20.091  1.00  0.00     0.009 A 
ATOM     23  C   UNL     1      36.399  27.953 -20.678  1.00  0.00     0.031 A 
ATOM     24  C   UNL     1      34.505  29.868 -19.848  1.00  0.00     0.001 A 
ATOM     25  C   UNL     1      36.772  29.288 -20.418  1.00  0.00     0.013 A 
ATOM     26  C   UNL     1      35.835  30.237 -20.007  1.00  0.00     0.001 A 
BRANCH  23  27
ATOM     27  C   UNL     1      37.434  27.026 -21.131  1.00  0.00     0.205 A 
ATOM     28  N   UNL     1      37.897  26.960 -22.427  1.00  0.00    -0.108 NA
ATOM     29  N   UNL     1      38.086  26.169 -20.318  1.00  0.00    -0.134 NA
ATOM     30  N   UNL     1      38.842  26.032 -22.456  1.00  0.00    -0.050 NA
ATOM     31  N   UNL     1      38.918  25.593 -21.198  1.00  0.00    -0.177 N 
ATOM     32  H   UNL     1      39.572  24.866 -20.926  1.00  0.00     0.216 HD
ENDBRANCH  23  27
ENDBRANCH  20  21
ENDBRANCH  14  15
ENDBRANCH   9  14
BRANCH   7  33
ATOM     33  O   UNL     1      34.572  20.102 -23.083  1.00  0.00    -0.492 OA
ATOM     34  H   UNL     1      35.059  20.940 -23.183  1.00  0.00     0.295 HD
ENDBRANCH   7  33
TORSDOF 8
ENDMDL
MODEL 9
REMARK VINA RESULT:    -5.313      3.107      4.771
REMARK INTER + INTRA:          -9.185
REMARK INTER:                  -6.892
REMARK INTRA:                  -2.292
REMARK UNBOUND:                -1.542
REMARK SMILES CCCCc1nc2ccnc(O)c2n1Cc1ccc(-c2ccccc2-c2nn[nH]n2)cc1
REMARK SMILES IDX 5 1 6 2 7 3 8 4 9 5 10 6 11 7 13 8 14 9 4 10 3 11 2 12 1 13
REMARK SMILES IDX 15 14 16 15 17 16 32 17 18 18 31 19 19 20 20 21 21 22 25 23
REMARK SMILES IDX 22 24 24 25 23 26 26 27 27 28 30 29 28 30 29 31 12 33
REMARK H PARENT 29 32 12 34
ROOT
ATOM      1  C   UNL     1      29.799  19.774 -23.323  1.00  0.00     0.110 A 
ATOM      2  N   UNL     1      28.565  19.795 -23.793  1.00  0.00    -0.233 NA
ATOM      3  C   UNL     1      27.745  19.846 -22.696  1.00  0.00     0.096 A 
ATOM      4  C   UNL     1      26.352  19.899 -22.632  1.00  0.00     0.051 A 
ATOM      5  C   UNL     1      25.809  19.964 -21.358  1.00  0.00     0.117 A 
ATOM      6  N   UNL     1      26.524  19.985 -20.209  1.00  0.00    -0.220 NA
ATOM      7  C   UNL     1      27.863  19.929 -20.296  1.00  0.00     0.237 A 
ATOM      8  C   UNL     1      28.488  19.854 -21.524  1.00  0.00     0.131 A 
ATOM      9  N   UNL     1      29.796  19.771 -21.941  1.00  0.00    -0.319 N 
ENDROOT
BRANCH   1  10
ATOM     10  C   UNL     1      31.027  19.753 -24.178  1.00  0.00     0.075 C 
BRANCH  10  11
ATOM     11  C   UNL     1      31.138  21.028 -25.017  1.00  0.00     0.008 C 
BRANCH  11  12
ATOM     12  C   UNL     1      31.258  22.298 -24.173  1.00  0.00    -0.003 C 
ATOM     13  C   UNL     1      29.928  22.998 -23.941  1.00  0.00     0.004 C 
ENDBRANCH  11  12
ENDBRANCH  10  11
ENDBRANCH   1  10
BRANCH   9  14
ATOM     14  C   UNL     1      30.960  19.740 -21.065  1.00  0.00     0.159 C 
BRANCH  14  15
ATOM     15  C   UNL     1      31.578  21.103 -20.854  1.00  0.00    -0.028 A 
ATOM     16  C   UNL     1      30.828  22.198 -20.402  1.00  0.00     0.006 A 
ATOM     17  C   UNL     1      32.955  21.276 -21.054  1.00  0.00     0.006 A 
ATOM     18  C   UNL     1      31.438  23.435 -20.171  1.00  0.00     0.009 A 
ATOM     19  C   UNL     1      33.564  22.513 -20.822  1.00  0.00     0.009 A 
ATOM     20  C   UNL     1      32.814  23.607 -20.370  1.00  0.00    -0.018 A 
BRANCH  20  21
ATOM     21  C   UNL     1      33.453  24.911 -20.132  1.00  0.00    -0.007 A 
ATOM     22  C   UNL     1      34.118  25.102 -18.901  1.00  0.00     0.009 A 
ATOM     23  C   UNL     1      33.466  25.963 -21.078  1.00  0.00     0.031 A 
ATOM     24  C   UNL     1      34.787  26.290 -18.609  1.00  0.00     0.001 A 
ATOM     25  C   UNL     1      34.157  27.153 -20.767  1.00  0.00     0.013 A 
ATOM     26  C   UNL     1      34.810  27.316 -19.545  1.00  0.00     0.001 A 
BRANCH  23  27
ATOM     27  C   UNL     1      32.784  25.881 -22.368  1.00  0.00     0.205 A 
ATOM     28  N   UNL     1      31.469  26.236 -22.569  1.00  0.00    -0.108 NA
ATOM     29  N   UNL     1      33.383  25.497 -23.514  1.00  0.00    -0.134 NA
ATOM     30  N   UNL     1      31.208  26.055 -23.855  1.00  0.00    -0.050 NA
ATOM     31  N   UNL     1      32.359  25.619 -24.370  1.00  0.00    -0.177 N 
ATOM     32  H   UNL     1      32.450  25.396 -25.357  1.00  0.00     0.216 HD
ENDBRANCH  23  27
ENDBRANCH  20  21
ENDBRANCH  14  15
ENDBRANCH   9  14
BRANCH   7  33
ATOM     33  O   UNL     1      28.515  19.976 -19.104  1.00  0.00    -0.492 OA
ATOM     34  H   UNL     1      29.141  20.698 -19.295  1.00  0.00     0.295 HD
ENDBRANCH   7  33
TORSDOF 8
ENDMDL
