MODEL 1
REMARK VINA RESULT:    -6.369      0.000      0.000
REMARK INTER + INTRA:          -9.650
REMARK INTER:                  -8.603
REMARK INTRA:                  -1.047
REMARK UNBOUND:                -1.047
REMARK SMILES CC(C)Oc1cccc(-n2c(NNC(=O)Nc3cccc([N+](=O)[O-])c3)nc3ccccc3c2=O)c1
REMARK SMILES IDX 10 1 11 2 12 3 26 4 27 5 28 6 29 7 30 8 31 9 32 10 33 11
REMARK SMILES IDX 34 12 9 14 5 15 6 16 35 17 7 18 8 19 4 20 2 21 1 22 3 23
REMARK SMILES IDX 13 24 14 25 15 26 16 27 17 30 18 31 25 32 19 33 21 34 20 35
REMARK SMILES IDX 22 36 23 37 24 38
REMARK H PARENT 12 13 13 28 16 29
ROOT
ATOM      1  N   UNL     1      29.261  20.926 -20.919  1.00  0.00    -0.245 N 
ATOM      2  C   UNL     1      29.324  19.966 -21.941  1.00  0.00     0.230 C 
ATOM      3  N   UNL     1      30.521  19.686 -22.589  1.00  0.00    -0.265 N 
ATOM      4  N   UNL     1      28.283  19.250 -22.291  1.00  0.00    -0.213 NA
ATOM      5  C   UNL     1      27.080  19.405 -21.600  1.00  0.00     0.080 A 
ATOM      6  C   UNL     1      25.975  18.649 -22.003  1.00  0.00     0.029 A 
ATOM      7  C   UNL     1      24.757  18.747 -21.324  1.00  0.00     0.002 A 
ATOM      8  C   UNL     1      24.637  19.602 -20.231  1.00  0.00     0.001 A 
ATOM      9  C   UNL     1      25.734  20.358 -19.821  1.00  0.00     0.016 A 
ATOM     10  C   UNL     1      26.950  20.253 -20.510  1.00  0.00     0.066 A 
ATOM     11  C   UNL     1      28.118  21.058 -20.118  1.00  0.00     0.267 C 
ATOM     12  O   UNL     1      27.995  21.807 -19.149  1.00  0.00    -0.268 OA
ATOM     13  H   UNL     1      31.281  20.368 -22.552  1.00  0.00     0.191 HD
ENDROOT
BRANCH   1  14
ATOM     14  C   UNL     1      30.344  21.837 -20.685  1.00  0.00     0.056 A 
ATOM     15  C   UNL     1      31.495  23.924 -21.219  1.00  0.00     0.121 A 
ATOM     16  C   UNL     1      32.440  23.657 -20.232  1.00  0.00     0.046 A 
ATOM     17  C   UNL     1      30.445  23.024 -21.428  1.00  0.00     0.073 A 
ATOM     18  C   UNL     1      32.337  22.494 -19.465  1.00  0.00     0.006 A 
ATOM     19  C   UNL     1      31.293  21.593 -19.686  1.00  0.00     0.027 A 
BRANCH  15  20
ATOM     20  O   UNL     1      31.451  25.036 -22.011  1.00  0.00    -0.491 OA
BRANCH  20  21
ATOM     21  C   UNL     1      31.602  24.877 -23.425  1.00  0.00     0.167 C 
ATOM     22  C   UNL     1      32.961  24.250 -23.719  1.00  0.00     0.052 C 
ATOM     23  C   UNL     1      31.524  26.275 -24.035  1.00  0.00     0.052 C 
ENDBRANCH  20  21
ENDBRANCH  15  20
ENDBRANCH   1  14
BRANCH   3  24
ATOM     24  N   UNL     1      30.384  19.094 -23.873  1.00  0.00    -0.249 N 
ATOM     25  C   UNL     1      31.101  19.728 -24.880  1.00  0.00     0.337 C 
ATOM     26  O   UNL     1      31.938  20.588 -24.627  1.00  0.00    -0.247 OA
ATOM     27  N   UNL     1      30.764  19.238 -26.123  1.00  0.00    -0.306 N 
ATOM     28  H   UNL     1      29.406  18.872 -24.064  1.00  0.00     0.193 HD
ATOM     29  H   UNL     1      30.173  18.418 -26.114  1.00  0.00     0.171 HD
BRANCH  27  30
ATOM     30  C   UNL     1      31.249  19.664 -27.374  1.00  0.00     0.049 A 
ATOM     31  C   UNL     1      30.392  19.508 -28.475  1.00  0.00     0.027 A 
ATOM     32  C   UNL     1      32.508  20.238 -27.569  1.00  0.00     0.111 A 
ATOM     33  C   UNL     1      30.783  19.912 -29.754  1.00  0.00     0.009 A 
ATOM     34  C   UNL     1      32.898  20.639 -28.855  1.00  0.00     0.271 A 
ATOM     35  C   UNL     1      32.040  20.480 -29.950  1.00  0.00     0.086 A 
BRANCH  34  36
ATOM     36  N   UNL     1      34.219  21.249 -29.060  1.00  0.00     0.062 N 
ATOM     37  O   UNL     1      34.295  22.199 -29.855  1.00  0.00    -0.258 OA
ATOM     38  O   UNL     1      35.179  20.779 -28.433  1.00  0.00    -0.258 OA
ENDBRANCH  34  36
ENDBRANCH  27  30
ENDBRANCH   3  24
TORSDOF 6
ENDMDL
MODEL 2
REMARK VINA RESULT:    -6.273      3.569      9.862
REMARK INTER + INTRA:          -9.520
REMARK INTER:                  -8.482
REMARK INTRA:                  -1.038
REMARK UNBOUND:                -1.047
REMARK SMILES CC(C)Oc1cccc(-n2c(NNC(=O)Nc3cccc([N+](=O)[O-])c3)nc3ccccc3c2=O)c1
REMARK SMILES IDX 10 1 11 2 12 3 26 4 27 5 28 6 29 7 30 8 31 9 32 10 33 11
REMARK SMILES IDX 34 12 9 14 5 15 6 16 35 17 7 18 8 19 4 20 2 21 1 22 3 23
REMARK SMILES IDX 13 24 14 25 15 26 16 27 17 30 18 31 25 32 19 33 21 34 20 35
REMARK SMILES IDX 22 36 23 37 24 38
REMARK H PARENT 12 13 13 28 16 29
ROOT
ATOM      1  N   UNL     1      30.287  21.691 -22.450  1.00  0.00    -0.245 N 
ATOM      2  C   UNL     1      30.918  21.704 -21.195  1.00  0.00     0.230 C 
ATOM      3  N   UNL     1      30.964  20.562 -20.406  1.00  0.00    -0.265 N 
ATOM      4  N   UNL     1      31.540  22.763 -20.739  1.00  0.00    -0.213 NA
ATOM      5  C   UNL     1      31.626  23.906 -21.535  1.00  0.00     0.080 A 
ATOM      6  C   UNL     1      32.274  25.033 -21.021  1.00  0.00     0.029 A 
ATOM      7  C   UNL     1      32.411  26.192 -21.791  1.00  0.00     0.002 A 
ATOM      8  C   UNL     1      31.904  26.229 -23.088  1.00  0.00     0.001 A 
ATOM      9  C   UNL     1      31.257  25.109 -23.609  1.00  0.00     0.016 A 
ATOM     10  C   UNL     1      31.124  23.954 -22.828  1.00  0.00     0.066 A 
ATOM     11  C   UNL     1      30.423  22.765 -23.341  1.00  0.00     0.267 C 
ATOM     12  O   UNL     1      29.982  22.815 -24.489  1.00  0.00    -0.268 OA
ATOM     13  H   UNL     1      30.295  19.809 -20.576  1.00  0.00     0.191 HD
ENDROOT
BRANCH   1  14
ATOM     14  C   UNL     1      29.443  20.603 -22.849  1.00  0.00     0.056 A 
ATOM     15  C   UNL     1      27.236  19.558 -22.908  1.00  0.00     0.121 A 
ATOM     16  C   UNL     1      27.758  18.494 -23.639  1.00  0.00     0.046 A 
ATOM     17  C   UNL     1      28.076  20.611 -22.532  1.00  0.00     0.073 A 
ATOM     18  C   UNL     1      29.111  18.484 -23.987  1.00  0.00     0.006 A 
ATOM     19  C   UNL     1      29.947  19.533 -23.599  1.00  0.00     0.027 A 
BRANCH  15  20
ATOM     20  O   UNL     1      25.932  19.716 -22.537  1.00  0.00    -0.491 OA
BRANCH  20  21
ATOM     21  C   UNL     1      25.493  19.131 -21.306  1.00  0.00     0.167 C 
ATOM     22  C   UNL     1      24.539  17.980 -21.608  1.00  0.00     0.052 C 
ATOM     23  C   UNL     1      24.765  20.229 -20.533  1.00  0.00     0.052 C 
ENDBRANCH  20  21
ENDBRANCH  15  20
ENDBRANCH   1  14
BRANCH   3  24
ATOM     24  N   UNL     1      31.175  20.800 -19.021  1.00  0.00    -0.249 N 
ATOM     25  C   UNL     1      30.022  20.747 -18.245  1.00  0.00     0.337 C 
ATOM     26  O   UNL     1      28.964  20.323 -18.696  1.00  0.00    -0.247 OA
ATOM     27  N   UNL     1      30.260  21.189 -16.961  1.00  0.00    -0.306 N 
ATOM     28  H   UNL     1      31.794  21.599 -18.883  1.00  0.00     0.193 HD
ATOM     29  H   UNL     1      31.233  21.343 -16.735  1.00  0.00     0.171 HD
BRANCH  27  30
ATOM     30  C   UNL     1      29.330  21.317 -15.912  1.00  0.00     0.049 A 
ATOM     31  C   UNL     1      29.785  21.923 -14.730  1.00  0.00     0.027 A 
ATOM     32  C   UNL     1      28.000  20.895 -15.991  1.00  0.00     0.111 A 
ATOM     33  C   UNL     1      28.931  22.103 -13.639  1.00  0.00     0.009 A 
ATOM     34  C   UNL     1      27.147  21.075 -14.893  1.00  0.00     0.271 A 
ATOM     35  C   UNL     1      27.606  21.680 -13.716  1.00  0.00     0.086 A 
BRANCH  34  36
ATOM     36  N   UNL     1      25.747  20.637 -14.977  1.00  0.00     0.062 N 
ATOM     37  O   UNL     1      25.514  19.573 -15.572  1.00  0.00    -0.258 OA
ATOM     38  O   UNL     1      24.881  21.354 -14.455  1.00  0.00    -0.258 OA
ENDBRANCH  34  36
ENDBRANCH  27  30
ENDBRANCH   3  24
TORSDOF 6
ENDMDL
MODEL 3
REMARK VINA RESULT:    -6.271      4.127      7.179
REMARK INTER + INTRA:          -9.517
REMARK INTER:                  -8.393
REMARK INTRA:                  -1.124
REMARK UNBOUND:                -1.047
REMARK SMILES CC(C)Oc1cccc(-n2c(NNC(=O)Nc3cccc([N+](=O)[O-])c3)nc3ccccc3c2=O)c1
REMARK SMILES IDX 10 1 11 2 12 3 26 4 27 5 28 6 29 7 30 8 31 9 32 10 33 11
REMARK SMILES IDX 34 12 9 14 5 15 6 16 35 17 7 18 8 19 4 20 2 21 1 22 3 23
REMARK SMILES IDX 13 24 14 25 15 26 16 27 17 30 18 31 25 32 19 33 21 34 20 35
REMARK SMILES IDX 22 36 23 37 24 38
REMARK H PARENT 12 13 13 28 16 29
ROOT
ATOM      1  N   UNL     1      26.889  19.513 -20.197  1.00  0.00    -0.245 N 
ATOM      2  C   UNL     1      28.187  19.607 -20.725  1.00  0.00     0.230 C 
ATOM      3  N   UNL     1      29.276  19.870 -19.904  1.00  0.00    -0.265 N 
ATOM      4  N   UNL     1      28.441  19.393 -21.992  1.00  0.00    -0.213 NA
ATOM      5  C   UNL     1      27.405  19.013 -22.847  1.00  0.00     0.080 A 
ATOM      6  C   UNL     1      27.692  18.812 -24.200  1.00  0.00     0.029 A 
ATOM      7  C   UNL     1      26.694  18.403 -25.089  1.00  0.00     0.002 A 
ATOM      8  C   UNL     1      25.398  18.186 -24.628  1.00  0.00     0.001 A 
ATOM      9  C   UNL     1      25.102  18.383 -23.279  1.00  0.00     0.016 A 
ATOM     10  C   UNL     1      26.110  18.795 -22.397  1.00  0.00     0.066 A 
ATOM     11  C   UNL     1      25.823  19.037 -20.974  1.00  0.00     0.267 C 
ATOM     12  O   UNL     1      24.673  18.839 -20.583  1.00  0.00    -0.268 OA
ATOM     13  H   UNL     1      29.121  20.295 -18.988  1.00  0.00     0.191 HD
ENDROOT
BRANCH   1  14
ATOM     14  C   UNL     1      26.594  19.944 -18.862  1.00  0.00     0.056 A 
ATOM     15  C   UNL     1      26.365  19.434 -16.484  1.00  0.00     0.121 A 
ATOM     16  C   UNL     1      26.049  20.766 -16.228  1.00  0.00     0.046 A 
ATOM     17  C   UNL     1      26.652  19.035 -17.794  1.00  0.00     0.073 A 
ATOM     18  C   UNL     1      26.014  21.688 -17.276  1.00  0.00     0.006 A 
ATOM     19  C   UNL     1      26.290  21.282 -18.583  1.00  0.00     0.027 A 
BRANCH  15  20
ATOM     20  O   UNL     1      26.474  18.440 -15.555  1.00  0.00    -0.491 OA
BRANCH  20  21
ATOM     21  C   UNL     1      26.343  18.777 -14.170  1.00  0.00     0.167 C 
ATOM     22  C   UNL     1      27.618  18.383 -13.432  1.00  0.00     0.052 C 
ATOM     23  C   UNL     1      25.155  17.979 -13.634  1.00  0.00     0.052 C 
ENDBRANCH  20  21
ENDBRANCH  15  20
ENDBRANCH   1  14
BRANCH   3  24
ATOM     24  N   UNL     1      30.410  20.409 -20.568  1.00  0.00    -0.249 N 
ATOM     25  C   UNL     1      30.374  21.787 -20.745  1.00  0.00     0.337 C 
ATOM     26  O   UNL     1      29.535  22.484 -20.184  1.00  0.00    -0.247 OA
ATOM     27  N   UNL     1      31.391  22.215 -21.571  1.00  0.00    -0.306 N 
ATOM     28  H   UNL     1      30.656  19.840 -21.379  1.00  0.00     0.193 HD
ATOM     29  H   UNL     1      32.078  21.512 -21.803  1.00  0.00     0.171 HD
BRANCH  27  30
ATOM     30  C   UNL     1      31.645  23.529 -22.009  1.00  0.00     0.049 A 
ATOM     31  C   UNL     1      31.035  23.929 -23.208  1.00  0.00     0.027 A 
ATOM     32  C   UNL     1      32.444  24.442 -21.315  1.00  0.00     0.111 A 
ATOM     33  C   UNL     1      31.220  25.217 -23.715  1.00  0.00     0.009 A 
ATOM     34  C   UNL     1      32.630  25.734 -21.829  1.00  0.00     0.271 A 
ATOM     35  C   UNL     1      32.020  26.127 -23.028  1.00  0.00     0.086 A 
BRANCH  34  36
ATOM     36  N   UNL     1      33.465  26.697 -21.098  1.00  0.00     0.062 N 
ATOM     37  O   UNL     1      32.895  27.459 -20.301  1.00  0.00    -0.258 OA
ATOM     38  O   UNL     1      34.684  26.695 -21.320  1.00  0.00    -0.258 OA
ENDBRANCH  34  36
ENDBRANCH  27  30
ENDBRANCH   3  24
TORSDOF 6
ENDMDL
MODEL 4
REMARK VINA RESULT:    -6.192      1.774      2.243
REMARK INTER + INTRA:          -9.411
REMARK INTER:                  -8.527
REMARK INTRA:                  -0.884
REMARK UNBOUND:                -1.047
REMARK SMILES CC(C)Oc1cccc(-n2c(NNC(=O)Nc3cccc([N+](=O)[O-])c3)nc3ccccc3c2=O)c1
REMARK SMILES IDX 10 1 11 2 12 3 26 4 27 5 28 6 29 7 30 8 31 9 32 10 33 11
REMARK SMILES IDX 34 12 9 14 5 15 6 16 35 17 7 18 8 19 4 20 2 21 1 22 3 23
REMARK SMILES IDX 13 24 14 25 15 26 16 27 17 30 18 31 25 32 19 33 21 34 20 35
REMARK SMILES IDX 22 36 23 37 24 38
REMARK H PARENT 12 13 13 28 16 29
ROOT
ATOM      1  N   UNL     1      29.565  20.336 -22.606  1.00  0.00    -0.245 N 
ATOM      2  C   UNL     1      29.963  19.635 -23.756  1.00  0.00     0.230 C 
ATOM      3  N   UNL     1      31.303  19.541 -24.109  1.00  0.00    -0.265 N 
ATOM      4  N   UNL     1      29.107  18.991 -24.511  1.00  0.00    -0.213 NA
ATOM      5  C   UNL     1      27.761  18.953 -24.145  1.00  0.00     0.080 A 
ATOM      6  C   UNL     1      26.859  18.280 -24.975  1.00  0.00     0.029 A 
ATOM      7  C   UNL     1      25.506  18.190 -24.636  1.00  0.00     0.002 A 
ATOM      8  C   UNL     1      25.044  18.770 -23.458  1.00  0.00     0.001 A 
ATOM      9  C   UNL     1      25.936  19.442 -22.622  1.00  0.00     0.016 A 
ATOM     10  C   UNL     1      27.290  19.527 -22.973  1.00  0.00     0.066 A 
ATOM     11  C   UNL     1      28.251  20.253 -22.125  1.00  0.00     0.267 C 
ATOM     12  O   UNL     1      27.826  20.759 -21.087  1.00  0.00    -0.268 OA
ATOM     13  H   UNL     1      31.969  20.217 -23.730  1.00  0.00     0.191 HD
ENDROOT
BRANCH   1  14
ATOM     14  C   UNL     1      30.473  21.198 -21.907  1.00  0.00     0.056 A 
ATOM     15  C   UNL     1      31.308  23.445 -21.438  1.00  0.00     0.121 A 
ATOM     16  C   UNL     1      32.224  22.916 -20.532  1.00  0.00     0.046 A 
ATOM     17  C   UNL     1      30.429  22.587 -22.107  1.00  0.00     0.073 A 
ATOM     18  C   UNL     1      32.262  21.539 -20.302  1.00  0.00     0.006 A 
ATOM     19  C   UNL     1      31.389  20.686 -20.981  1.00  0.00     0.027 A 
BRANCH  15  20
ATOM     20  O   UNL     1      31.134  24.768 -21.728  1.00  0.00    -0.491 OA
BRANCH  20  21
ATOM     21  C   UNL     1      32.212  25.483 -22.341  1.00  0.00     0.167 C 
ATOM     22  C   UNL     1      32.762  26.508 -21.356  1.00  0.00     0.052 C 
ATOM     23  C   UNL     1      31.631  26.188 -23.565  1.00  0.00     0.052 C 
ENDBRANCH  20  21
ENDBRANCH  15  20
ENDBRANCH   1  14
BRANCH   3  24
ATOM     24  N   UNL     1      31.542  19.253 -25.480  1.00  0.00    -0.249 N 
ATOM     25  C   UNL     1      32.357  20.173 -26.129  1.00  0.00     0.337 C 
ATOM     26  O   UNL     1      32.976  21.031 -25.509  1.00  0.00    -0.247 OA
ATOM     27  N   UNL     1      32.379  19.954 -27.489  1.00  0.00    -0.306 N 
ATOM     28  H   UNL     1      30.676  18.984 -25.948  1.00  0.00     0.193 HD
ATOM     29  H   UNL     1      31.933  19.099 -27.792  1.00  0.00     0.171 HD
BRANCH  27  30
ATOM     30  C   UNL     1      33.055  20.706 -28.469  1.00  0.00     0.049 A 
ATOM     31  C   UNL     1      32.494  20.724 -29.756  1.00  0.00     0.027 A 
ATOM     32  C   UNL     1      34.222  21.435 -28.226  1.00  0.00     0.111 A 
ATOM     33  C   UNL     1      33.089  21.451 -30.790  1.00  0.00     0.009 A 
ATOM     34  C   UNL     1      34.818  22.162 -29.267  1.00  0.00     0.271 A 
ATOM     35  C   UNL     1      34.255  22.175 -30.550  1.00  0.00     0.086 A 
BRANCH  34  36
ATOM     36  N   UNL     1      36.042  22.933 -29.012  1.00  0.00     0.062 N 
ATOM     37  O   UNL     1      35.986  24.163 -29.166  1.00  0.00    -0.258 OA
ATOM     38  O   UNL     1      37.056  22.315 -28.660  1.00  0.00    -0.258 OA
ENDBRANCH  34  36
ENDBRANCH  27  30
ENDBRANCH   3  24
TORSDOF 6
ENDMDL
MODEL 5
REMARK VINA RESULT:    -5.948      3.749      8.512
REMARK INTER + INTRA:          -9.081
REMARK INTER:                  -7.905
REMARK INTRA:                  -1.176
REMARK UNBOUND:                -1.047
REMARK SMILES CC(C)Oc1cccc(-n2c(NNC(=O)Nc3cccc([N+](=O)[O-])c3)nc3ccccc3c2=O)c1
REMARK SMILES IDX 10 1 11 2 12 3 26 4 27 5 28 6 29 7 30 8 31 9 32 10 33 11
REMARK SMILES IDX 34 12 9 14 5 15 6 16 35 17 7 18 8 19 4 20 2 21 1 22 3 23
REMARK SMILES IDX 13 24 14 25 15 26 16 27 17 30 18 31 25 32 19 33 21 34 20 35
REMARK SMILES IDX 22 36 23 37 24 38
REMARK H PARENT 12 13 13 28 16 29
ROOT
ATOM      1  N   UNL     1      33.476  24.896 -20.416  1.00  0.00    -0.245 N 
ATOM      2  C   UNL     1      33.056  23.685 -19.842  1.00  0.00     0.230 C 
ATOM      3  N   UNL     1      32.466  22.693 -20.615  1.00  0.00    -0.265 N 
ATOM      4  N   UNL     1      33.253  23.408 -18.577  1.00  0.00    -0.213 NA
ATOM      5  C   UNL     1      33.942  24.318 -17.773  1.00  0.00     0.080 A 
ATOM      6  C   UNL     1      34.122  24.015 -16.420  1.00  0.00     0.029 A 
ATOM      7  C   UNL     1      34.831  24.881 -15.583  1.00  0.00     0.002 A 
ATOM      8  C   UNL     1      35.371  26.057 -16.095  1.00  0.00     0.001 A 
ATOM      9  C   UNL     1      35.198  26.367 -17.444  1.00  0.00     0.016 A 
ATOM     10  C   UNL     1      34.484  25.493 -18.274  1.00  0.00     0.066 A 
ATOM     11  C   UNL     1      34.262  25.805 -19.695  1.00  0.00     0.267 C 
ATOM     12  O   UNL     1      34.747  26.849 -20.132  1.00  0.00    -0.268 OA
ATOM     13  H   UNL     1      32.056  22.939 -21.518  1.00  0.00     0.191 HD
ENDROOT
BRANCH   1  14
ATOM     14  C   UNL     1      33.078  25.269 -21.742  1.00  0.00     0.056 A 
ATOM     15  C   UNL     1      33.544  25.352 -24.138  1.00  0.00     0.121 A 
ATOM     16  C   UNL     1      32.313  25.965 -24.358  1.00  0.00     0.046 A 
ATOM     17  C   UNL     1      33.911  24.994 -22.837  1.00  0.00     0.073 A 
ATOM     18  C   UNL     1      31.460  26.221 -23.282  1.00  0.00     0.006 A 
ATOM     19  C   UNL     1      31.837  25.871 -21.984  1.00  0.00     0.027 A 
BRANCH  15  20
ATOM     20  O   UNL     1      34.454  25.008 -25.097  1.00  0.00    -0.491 OA
BRANCH  20  21
ATOM     21  C   UNL     1      35.274  23.855 -24.881  1.00  0.00     0.167 C 
ATOM     22  C   UNL     1      36.558  23.992 -25.692  1.00  0.00     0.052 C 
ATOM     23  C   UNL     1      34.472  22.648 -25.364  1.00  0.00     0.052 C 
ENDBRANCH  20  21
ENDBRANCH  15  20
ENDBRANCH   1  14
BRANCH   3  24
ATOM     24  N   UNL     1      31.670  21.764 -19.892  1.00  0.00    -0.249 N 
ATOM     25  C   UNL     1      30.318  21.790 -20.215  1.00  0.00     0.337 C 
ATOM     26  O   UNL     1      29.902  22.412 -21.186  1.00  0.00    -0.247 OA
ATOM     27  N   UNL     1      29.578  21.024 -19.340  1.00  0.00    -0.306 N 
ATOM     28  H   UNL     1      31.913  21.776 -18.901  1.00  0.00     0.193 HD
ATOM     29  H   UNL     1      30.120  20.458 -18.703  1.00  0.00     0.171 HD
BRANCH  27  30
ATOM     30  C   UNL     1      28.181  20.845 -19.327  1.00  0.00     0.049 A 
ATOM     31  C   UNL     1      27.495  21.285 -18.184  1.00  0.00     0.027 A 
ATOM     32  C   UNL     1      27.456  20.279 -20.379  1.00  0.00     0.111 A 
ATOM     33  C   UNL     1      26.107  21.159 -18.085  1.00  0.00     0.009 A 
ATOM     34  C   UNL     1      26.063  20.152 -20.275  1.00  0.00     0.271 A 
ATOM     35  C   UNL     1      25.384  20.591 -19.131  1.00  0.00     0.086 A 
BRANCH  34  36
ATOM     36  N   UNL     1      25.299  19.563 -21.382  1.00  0.00     0.062 N 
ATOM     37  O   UNL     1      25.507  20.009 -22.522  1.00  0.00    -0.258 OA
ATOM     38  O   UNL     1      24.493  18.660 -21.117  1.00  0.00    -0.258 OA
ENDBRANCH  34  36
ENDBRANCH  27  30
ENDBRANCH   3  24
TORSDOF 6
ENDMDL
MODEL 6
REMARK VINA RESULT:    -5.568      8.369     11.039
REMARK INTER + INTRA:          -8.568
REMARK INTER:                  -7.352
REMARK INTRA:                  -1.216
REMARK UNBOUND:                -1.047
REMARK SMILES CC(C)Oc1cccc(-n2c(NNC(=O)Nc3cccc([N+](=O)[O-])c3)nc3ccccc3c2=O)c1
REMARK SMILES IDX 10 1 11 2 12 3 26 4 27 5 28 6 29 7 30 8 31 9 32 10 33 11
REMARK SMILES IDX 34 12 9 14 5 15 6 16 35 17 7 18 8 19 4 20 2 21 1 22 3 23
REMARK SMILES IDX 13 24 14 25 15 26 16 27 17 30 18 31 25 32 19 33 21 34 20 35
REMARK SMILES IDX 22 36 23 37 24 38
REMARK H PARENT 12 13 13 28 16 29
ROOT
ATOM      1  N   UNL     1      33.501  30.916 -16.079  1.00  0.00    -0.245 N 
ATOM      2  C   UNL     1      32.994  30.016 -17.030  1.00  0.00     0.230 C 
ATOM      3  N   UNL     1      33.800  29.518 -18.046  1.00  0.00    -0.265 N 
ATOM      4  N   UNL     1      31.767  29.559 -16.972  1.00  0.00    -0.213 NA
ATOM      5  C   UNL     1      30.943  29.935 -15.910  1.00  0.00     0.080 A 
ATOM      6  C   UNL     1      29.631  29.455 -15.878  1.00  0.00     0.029 A 
ATOM      7  C   UNL     1      28.777  29.779 -14.820  1.00  0.00     0.002 A 
ATOM      8  C   UNL     1      29.234  30.585 -13.780  1.00  0.00     0.001 A 
ATOM      9  C   UNL     1      30.542  31.067 -13.802  1.00  0.00     0.016 A 
ATOM     10  C   UNL     1      31.388  30.737 -14.869  1.00  0.00     0.066 A 
ATOM     11  C   UNL     1      32.766  31.252 -14.934  1.00  0.00     0.267 C 
ATOM     12  O   UNL     1      33.153  31.962 -14.006  1.00  0.00    -0.268 OA
ATOM     13  H   UNL     1      34.654  30.018 -18.297  1.00  0.00     0.191 HD
ENDROOT
BRANCH   1  14
ATOM     14  C   UNL     1      34.769  31.561 -16.266  1.00  0.00     0.056 A 
ATOM     15  C   UNL     1      36.066  33.465 -17.077  1.00  0.00     0.121 A 
ATOM     16  C   UNL     1      37.236  32.863 -16.622  1.00  0.00     0.046 A 
ATOM     17  C   UNL     1      34.840  32.821 -16.882  1.00  0.00     0.073 A 
ATOM     18  C   UNL     1      37.179  31.622 -15.982  1.00  0.00     0.006 A 
ATOM     19  C   UNL     1      35.953  30.978 -15.801  1.00  0.00     0.027 A 
BRANCH  15  20
ATOM     20  O   UNL     1      35.971  34.687 -17.679  1.00  0.00    -0.491 OA
BRANCH  20  21
ATOM     21  C   UNL     1      34.671  35.243 -17.901  1.00  0.00     0.167 C 
ATOM     22  C   UNL     1      34.489  35.522 -19.389  1.00  0.00     0.052 C 
ATOM     23  C   UNL     1      34.612  36.549 -17.110  1.00  0.00     0.052 C 
ENDBRANCH  20  21
ENDBRANCH  15  20
ENDBRANCH   1  14
BRANCH   3  24
ATOM     24  N   UNL     1      33.099  29.033 -19.182  1.00  0.00    -0.249 N 
ATOM     25  C   UNL     1      33.488  27.765 -19.601  1.00  0.00     0.337 C 
ATOM     26  O   UNL     1      34.218  27.059 -18.914  1.00  0.00    -0.247 OA
ATOM     27  N   UNL     1      32.926  27.443 -20.818  1.00  0.00    -0.306 N 
ATOM     28  H   UNL     1      33.025  29.758 -19.897  1.00  0.00     0.193 HD
ATOM     29  H   UNL     1      32.224  28.089 -21.149  1.00  0.00     0.171 HD
BRANCH  27  30
ATOM     30  C   UNL     1      33.123  26.269 -21.570  1.00  0.00     0.049 A 
ATOM     31  C   UNL     1      34.349  26.143 -22.242  1.00  0.00     0.027 A 
ATOM     32  C   UNL     1      32.185  25.237 -21.665  1.00  0.00     0.111 A 
ATOM     33  C   UNL     1      34.637  25.008 -23.004  1.00  0.00     0.009 A 
ATOM     34  C   UNL     1      32.478  24.100 -22.433  1.00  0.00     0.271 A 
ATOM     35  C   UNL     1      33.702  23.980 -23.103  1.00  0.00     0.086 A 
BRANCH  34  36
ATOM     36  N   UNL     1      31.496  23.012 -22.529  1.00  0.00     0.062 N 
ATOM     37  O   UNL     1      31.921  21.881 -22.814  1.00  0.00    -0.258 OA
ATOM     38  O   UNL     1      30.305  23.284 -22.323  1.00  0.00    -0.258 OA
ENDBRANCH  34  36
ENDBRANCH  27  30
ENDBRANCH   3  24
TORSDOF 6
ENDMDL
MODEL 7
REMARK VINA RESULT:    -5.456      3.410      8.447
REMARK INTER + INTRA:          -8.417
REMARK INTER:                  -7.268
REMARK INTRA:                  -1.150
REMARK UNBOUND:                -1.047
REMARK SMILES CC(C)Oc1cccc(-n2c(NNC(=O)Nc3cccc([N+](=O)[O-])c3)nc3ccccc3c2=O)c1
REMARK SMILES IDX 10 1 11 2 12 3 26 4 27 5 28 6 29 7 30 8 31 9 32 10 33 11
REMARK SMILES IDX 34 12 9 14 5 15 6 16 35 17 7 18 8 19 4 20 2 21 1 22 3 23
REMARK SMILES IDX 13 24 14 25 15 26 16 27 17 30 18 31 25 32 19 33 21 34 20 35
REMARK SMILES IDX 22 36 23 37 24 38
REMARK H PARENT 12 13 13 28 16 29
ROOT
ATOM      1  N   UNL     1      34.329  23.534 -23.158  1.00  0.00    -0.245 N 
ATOM      2  C   UNL     1      33.201  22.749 -22.868  1.00  0.00     0.230 C 
ATOM      3  N   UNL     1      32.486  22.931 -21.691  1.00  0.00    -0.265 N 
ATOM      4  N   UNL     1      32.737  21.858 -23.710  1.00  0.00    -0.213 NA
ATOM      5  C   UNL     1      33.345  21.709 -24.957  1.00  0.00     0.080 A 
ATOM      6  C   UNL     1      32.849  20.738 -25.832  1.00  0.00     0.029 A 
ATOM      7  C   UNL     1      33.406  20.571 -27.103  1.00  0.00     0.002 A 
ATOM      8  C   UNL     1      34.464  21.380 -27.511  1.00  0.00     0.001 A 
ATOM      9  C   UNL     1      34.964  22.352 -26.646  1.00  0.00     0.016 A 
ATOM     10  C   UNL     1      34.399  22.510 -25.373  1.00  0.00     0.066 A 
ATOM     11  C   UNL     1      34.922  23.509 -24.427  1.00  0.00     0.267 C 
ATOM     12  O   UNL     1      35.856  24.217 -24.805  1.00  0.00    -0.268 OA
ATOM     13  H   UNL     1      32.931  23.403 -20.903  1.00  0.00     0.191 HD
ENDROOT
BRANCH   1  14
ATOM     14  C   UNL     1      34.943  24.355 -22.155  1.00  0.00     0.056 A 
ATOM     15  C   UNL     1      35.210  26.535 -21.087  1.00  0.00     0.121 A 
ATOM     16  C   UNL     1      36.111  25.982 -20.181  1.00  0.00     0.046 A 
ATOM     17  C   UNL     1      34.620  25.717 -22.056  1.00  0.00     0.073 A 
ATOM     18  C   UNL     1      36.423  24.623 -20.249  1.00  0.00     0.006 A 
ATOM     19  C   UNL     1      35.839  23.813 -21.225  1.00  0.00     0.027 A 
BRANCH  15  20
ATOM     20  O   UNL     1      34.786  27.833 -21.111  1.00  0.00    -0.491 OA
BRANCH  20  21
ATOM     21  C   UNL     1      34.896  28.613 -19.916  1.00  0.00     0.167 C 
ATOM     22  C   UNL     1      33.538  28.670 -19.224  1.00  0.00     0.052 C 
ATOM     23  C   UNL     1      35.328  30.014 -20.344  1.00  0.00     0.052 C 
ENDBRANCH  20  21
ENDBRANCH  15  20
ENDBRANCH   1  14
BRANCH   3  24
ATOM     24  N   UNL     1      31.706  21.814 -21.286  1.00  0.00    -0.249 N 
ATOM     25  C   UNL     1      30.412  22.129 -20.886  1.00  0.00     0.337 C 
ATOM     26  O   UNL     1      29.936  23.244 -21.075  1.00  0.00    -0.247 OA
ATOM     27  N   UNL     1      29.784  21.044 -20.313  1.00  0.00    -0.306 N 
ATOM     28  H   UNL     1      32.246  21.199 -20.676  1.00  0.00     0.193 HD
ATOM     29  H   UNL     1      30.283  20.169 -20.396  1.00  0.00     0.171 HD
BRANCH  27  30
ATOM     30  C   UNL     1      28.492  20.996 -19.757  1.00  0.00     0.049 A 
ATOM     31  C   UNL     1      28.299  21.667 -18.539  1.00  0.00     0.027 A 
ATOM     32  C   UNL     1      27.410  20.342 -20.351  1.00  0.00     0.111 A 
ATOM     33  C   UNL     1      27.049  21.683 -17.916  1.00  0.00     0.009 A 
ATOM     34  C   UNL     1      26.156  20.358 -19.722  1.00  0.00     0.271 A 
ATOM     35  C   UNL     1      25.970  21.028 -18.506  1.00  0.00     0.086 A 
BRANCH  34  36
ATOM     36  N   UNL     1      25.016  19.677 -20.349  1.00  0.00     0.062 N 
ATOM     37  O   UNL     1      24.743  19.977 -21.522  1.00  0.00    -0.258 OA
ATOM     38  O   UNL     1      24.392  18.846 -19.674  1.00  0.00    -0.258 OA
ENDBRANCH  34  36
ENDBRANCH  27  30
ENDBRANCH   3  24
TORSDOF 6
ENDMDL
MODEL 8
REMARK VINA RESULT:    -5.433      4.354      5.978
REMARK INTER + INTRA:          -8.385
REMARK INTER:                  -7.100
REMARK INTRA:                  -1.286
REMARK UNBOUND:                -1.047
REMARK SMILES CC(C)Oc1cccc(-n2c(NNC(=O)Nc3cccc([N+](=O)[O-])c3)nc3ccccc3c2=O)c1
REMARK SMILES IDX 10 1 11 2 12 3 26 4 27 5 28 6 29 7 30 8 31 9 32 10 33 11
REMARK SMILES IDX 34 12 9 14 5 15 6 16 35 17 7 18 8 19 4 20 2 21 1 22 3 23
REMARK SMILES IDX 13 24 14 25 15 26 16 27 17 30 18 31 25 32 19 33 21 34 20 35
REMARK SMILES IDX 22 36 23 37 24 38
REMARK H PARENT 12 13 13 28 16 29
ROOT
ATOM      1  N   UNL     1      28.368  19.888 -18.407  1.00  0.00    -0.245 N 
ATOM      2  C   UNL     1      29.118  19.936 -19.593  1.00  0.00     0.230 C 
ATOM      3  N   UNL     1      30.506  19.889 -19.564  1.00  0.00    -0.265 N 
ATOM      4  N   UNL     1      28.553  19.967 -20.774  1.00  0.00    -0.213 NA
ATOM      5  C   UNL     1      27.162  19.902 -20.873  1.00  0.00     0.080 A 
ATOM      6  C   UNL     1      26.577  19.959 -22.141  1.00  0.00     0.029 A 
ATOM      7  C   UNL     1      25.190  19.869 -22.293  1.00  0.00     0.002 A 
ATOM      8  C   UNL     1      24.377  19.715 -21.173  1.00  0.00     0.001 A 
ATOM      9  C   UNL     1      24.952  19.655 -19.904  1.00  0.00     0.016 A 
ATOM     10  C   UNL     1      26.343  19.749 -19.764  1.00  0.00     0.066 A 
ATOM     11  C   UNL     1      26.977  19.716 -18.436  1.00  0.00     0.267 C 
ATOM     12  O   UNL     1      26.243  19.578 -17.457  1.00  0.00    -0.268 OA
ATOM     13  H   UNL     1      30.997  20.126 -18.700  1.00  0.00     0.191 HD
ENDROOT
BRANCH   1  14
ATOM     14  C   UNL     1      28.988  20.058 -17.125  1.00  0.00     0.056 A 
ATOM     15  C   UNL     1      29.841  21.533 -15.375  1.00  0.00     0.121 A 
ATOM     16  C   UNL     1      30.179  20.425 -14.604  1.00  0.00     0.046 A 
ATOM     17  C   UNL     1      29.234  21.345 -16.621  1.00  0.00     0.073 A 
ATOM     18  C   UNL     1      29.917  19.138 -15.079  1.00  0.00     0.006 A 
ATOM     19  C   UNL     1      29.321  18.956 -16.329  1.00  0.00     0.027 A 
BRANCH  15  20
ATOM     20  O   UNL     1      30.002  22.842 -15.019  1.00  0.00    -0.491 OA
BRANCH  20  21
ATOM     21  C   UNL     1      31.276  23.265 -14.521  1.00  0.00     0.167 C 
ATOM     22  C   UNL     1      31.156  24.681 -13.968  1.00  0.00     0.052 C 
ATOM     23  C   UNL     1      32.240  23.242 -15.706  1.00  0.00     0.052 C 
ENDBRANCH  20  21
ENDBRANCH  15  20
ENDBRANCH   1  14
BRANCH   3  24
ATOM     24  N   UNL     1      31.147  20.418 -20.716  1.00  0.00    -0.249 N 
ATOM     25  C   UNL     1      31.405  21.783 -20.657  1.00  0.00     0.337 C 
ATOM     26  O   UNL     1      31.278  22.415 -19.614  1.00  0.00    -0.247 OA
ATOM     27  N   UNL     1      31.832  22.267 -21.875  1.00  0.00    -0.306 N 
ATOM     28  H   UNL     1      30.710  20.062 -21.567  1.00  0.00     0.193 HD
ATOM     29  H   UNL     1      32.028  21.561 -22.571  1.00  0.00     0.171 HD
BRANCH  27  30
ATOM     30  C   UNL     1      32.144  23.599 -22.207  1.00  0.00     0.049 A 
ATOM     31  C   UNL     1      31.108  24.382 -22.739  1.00  0.00     0.027 A 
ATOM     32  C   UNL     1      33.404  24.175 -22.021  1.00  0.00     0.111 A 
ATOM     33  C   UNL     1      31.321  25.718 -23.087  1.00  0.00     0.009 A 
ATOM     34  C   UNL     1      33.615  25.516 -22.375  1.00  0.00     0.271 A 
ATOM     35  C   UNL     1      32.577  26.292 -22.907  1.00  0.00     0.086 A 
BRANCH  34  36
ATOM     36  N   UNL     1      34.938  26.124 -22.174  1.00  0.00     0.062 N 
ATOM     37  O   UNL     1      35.014  27.084 -21.392  1.00  0.00    -0.258 OA
ATOM     38  O   UNL     1      35.897  25.647 -22.797  1.00  0.00    -0.258 OA
ENDBRANCH  34  36
ENDBRANCH  27  30
ENDBRANCH   3  24
TORSDOF 6
ENDMDL
MODEL 9
REMARK VINA RESULT:    -5.432      4.267      7.255
REMARK INTER + INTRA:          -8.384
REMARK INTER:                  -6.964
REMARK INTRA:                  -1.420
REMARK UNBOUND:                -1.047
REMARK SMILES CC(C)Oc1cccc(-n2c(NNC(=O)Nc3cccc([N+](=O)[O-])c3)nc3ccccc3c2=O)c1
REMARK SMILES IDX 10 1 11 2 12 3 26 4 27 5 28 6 29 7 30 8 31 9 32 10 33 11
REMARK SMILES IDX 34 12 9 14 5 15 6 16 35 17 7 18 8 19 4 20 2 21 1 22 3 23
REMARK SMILES IDX 13 24 14 25 15 26 16 27 17 30 18 31 25 32 19 33 21 34 20 35
REMARK SMILES IDX 22 36 23 37 24 38
REMARK H PARENT 12 13 13 28 16 29
ROOT
ATOM      1  N   UNL     1      33.135  20.993 -25.860  1.00  0.00    -0.245 N 
ATOM      2  C   UNL     1      33.996  21.239 -26.942  1.00  0.00     0.230 C 
ATOM      3  N   UNL     1      35.265  21.768 -26.742  1.00  0.00    -0.265 N 
ATOM      4  N   UNL     1      33.673  20.928 -28.174  1.00  0.00    -0.213 NA
ATOM      5  C   UNL     1      32.458  20.290 -28.426  1.00  0.00     0.080 A 
ATOM      6  C   UNL     1      32.122  19.988 -29.749  1.00  0.00     0.029 A 
ATOM      7  C   UNL     1      30.929  19.323 -30.048  1.00  0.00     0.002 A 
ATOM      8  C   UNL     1      30.064  18.950 -29.023  1.00  0.00     0.001 A 
ATOM      9  C   UNL     1      30.392  19.246 -27.700  1.00  0.00     0.016 A 
ATOM     10  C   UNL     1      31.589  19.914 -27.411  1.00  0.00     0.066 A 
ATOM     11  C   UNL     1      31.950  20.264 -26.028  1.00  0.00     0.267 C 
ATOM     12  O   UNL     1      31.175  19.926 -25.134  1.00  0.00    -0.268 OA
ATOM     13  H   UNL     1      35.470  22.261 -25.872  1.00  0.00     0.191 HD
ENDROOT
BRANCH   1  14
ATOM     14  C   UNL     1      33.412  21.517 -24.554  1.00  0.00     0.056 A 
ATOM     15  C   UNL     1      33.246  23.338 -22.935  1.00  0.00     0.121 A 
ATOM     16  C   UNL     1      33.917  22.563 -21.993  1.00  0.00     0.046 A 
ATOM     17  C   UNL     1      32.983  22.807 -24.202  1.00  0.00     0.073 A 
ATOM     18  C   UNL     1      34.326  21.268 -22.319  1.00  0.00     0.006 A 
ATOM     19  C   UNL     1      34.071  20.747 -23.589  1.00  0.00     0.027 A 
BRANCH  15  20
ATOM     20  O   UNL     1      32.756  24.598 -22.739  1.00  0.00    -0.491 OA
BRANCH  20  21
ATOM     21  C   UNL     1      31.515  24.955 -23.357  1.00  0.00     0.167 C 
ATOM     22  C   UNL     1      31.676  26.290 -24.077  1.00  0.00     0.052 C 
ATOM     23  C   UNL     1      30.486  25.082 -22.236  1.00  0.00     0.052 C 
ENDBRANCH  20  21
ENDBRANCH  15  20
ENDBRANCH   1  14
BRANCH   3  24
ATOM     24  N   UNL     1      35.833  22.407 -27.877  1.00  0.00    -0.249 N 
ATOM     25  C   UNL     1      36.018  23.777 -27.733  1.00  0.00     0.337 C 
ATOM     26  O   UNL     1      35.896  24.331 -26.646  1.00  0.00    -0.247 OA
ATOM     27  N   UNL     1      36.372  24.365 -28.929  1.00  0.00    -0.306 N 
ATOM     28  H   UNL     1      35.384  22.084 -28.734  1.00  0.00     0.193 HD
ATOM     29  H   UNL     1      36.580  23.719 -29.677  1.00  0.00     0.171 HD
BRANCH  27  30
ATOM     30  C   UNL     1      36.599  25.732 -29.180  1.00  0.00     0.049 A 
ATOM     31  C   UNL     1      37.934  26.165 -29.174  1.00  0.00     0.027 A 
ATOM     32  C   UNL     1      35.585  26.656 -29.445  1.00  0.00     0.111 A 
ATOM     33  C   UNL     1      38.257  27.501 -29.424  1.00  0.00     0.009 A 
ATOM     34  C   UNL     1      35.913  27.997 -29.692  1.00  0.00     0.271 A 
ATOM     35  C   UNL     1      37.248  28.425 -29.684  1.00  0.00     0.086 A 
BRANCH  34  36
ATOM     36  N   UNL     1      34.849  28.969 -29.977  1.00  0.00     0.062 N 
ATOM     37  O   UNL     1      33.677  28.561 -29.939  1.00  0.00    -0.258 OA
ATOM     38  O   UNL     1      35.180  30.133 -30.240  1.00  0.00    -0.258 OA
ENDBRANCH  34  36
ENDBRANCH  27  30
ENDBRANCH   3  24
TORSDOF 6
ENDMDL
