MODEL 1
REMARK VINA RESULT:    -6.680      0.000      0.000
REMARK INTER + INTRA:         -10.596
REMARK INTER:                  -9.413
REMARK INTRA:                  -1.183
REMARK UNBOUND:                -1.183
REMARK SMILES CC1=C(C(=O)NCCC[NH+]2CCC(C#N)(c3ccc(F)cc3C#N)CC2)C(c2ccc(F)c(F)c2)NC(=O)N1C
REMARK SMILES IDX 7 1 6 2 4 3 5 4 3 6 2 7 39 8 27 9 37 10 36 11 38 12 1 13
REMARK SMILES IDX 40 14 28 16 29 17 35 18 30 19 33 20 31 21 34 22 32 23 8 24
REMARK SMILES IDX 9 25 10 26 11 27 26 28 12 29 25 30 13 31 14 32 15 33 16 35
REMARK SMILES IDX 17 36 22 37 18 38 21 39 23 40 19 41 24 42 20 43
REMARK H PARENT 6 5 36 15 10 34
ROOT
ATOM      1  C   UNL     1      33.465  23.494 -17.228  1.00  0.00     0.122 C 
ENDROOT
BRANCH   1   2
ATOM      2  N   UNL     1      33.007  23.992 -18.505  1.00  0.00    -0.352 N 
ATOM      3  C   UNL     1      33.907  24.493 -19.417  1.00  0.00     0.251 C 
ATOM      4  O   UNL     1      35.111  24.563 -19.201  1.00  0.00    -0.270 OA
ATOM      5  H   UNL     1      32.051  23.828 -18.805  1.00  0.00     0.163 HD
BRANCH   3   6
ATOM      6  C   UNL     1      33.329  24.821 -20.744  1.00  0.00     0.063 C 
ATOM      7  C   UNL     1      33.327  23.961 -21.783  1.00  0.00     0.030 C 
ATOM      8  N   UNL     1      32.763  24.376 -22.997  1.00  0.00    -0.301 N 
ATOM      9  C   UNL     1      32.702  26.180 -20.800  1.00  0.00     0.152 C 
ATOM     10  C   UNL     1      32.130  25.603 -23.161  1.00  0.00     0.322 C 
ATOM     11  N   UNL     1      32.102  26.426 -22.084  1.00  0.00    -0.327 N 
ATOM     12  O   UNL     1      31.609  25.987 -24.204  1.00  0.00    -0.248 OA
ATOM     13  C   UNL     1      33.869  22.551 -21.706  1.00  0.00     0.065 C 
ATOM     14  C   UNL     1      32.774  23.489 -24.161  1.00  0.00     0.155 C 
ATOM     15  H   UNL     1      31.609  27.295 -22.241  1.00  0.00     0.166 HD
BRANCH   9  16
ATOM     16  C   UNL     1      33.689  27.296 -20.469  1.00  0.00    -0.018 A 
ATOM     17  C   UNL     1      33.378  28.294 -19.524  1.00  0.00     0.009 A 
ATOM     18  C   UNL     1      34.919  27.368 -21.149  1.00  0.00     0.048 A 
ATOM     19  C   UNL     1      34.272  29.338 -19.270  1.00  0.00     0.043 A 
ATOM     20  C   UNL     1      35.796  28.419 -20.897  1.00  0.00     0.159 A 
ATOM     21  C   UNL     1      35.474  29.399 -19.966  1.00  0.00     0.158 A 
ATOM     22  F   UNL     1      36.944  28.491 -21.585  1.00  0.00    -0.204 F 
ATOM     23  F   UNL     1      36.324  30.410 -19.732  1.00  0.00    -0.204 F 
ENDBRANCH   9  16
ENDBRANCH   3   6
ENDBRANCH   1   2
BRANCH   1  24
ATOM     24  C   UNL     1      32.452  22.559 -16.581  1.00  0.00     0.083 C 
BRANCH  24  25
ATOM     25  C   UNL     1      32.290  21.193 -17.246  1.00  0.00     0.264 C 
BRANCH  25  26
ATOM     26  N   UNL     1      31.001  20.951 -18.018  1.00  0.00    -0.335 N 
ATOM     27  C   UNL     1      31.003  21.458 -19.429  1.00  0.00     0.264 C 
ATOM     28  C   UNL     1      30.418  19.569 -17.882  1.00  0.00     0.264 C 
ATOM     29  C   UNL     1      29.570  21.613 -19.935  1.00  0.00     0.089 C 
ATOM     30  C   UNL     1      29.391  19.284 -18.988  1.00  0.00     0.089 C 
ATOM     31  C   UNL     1      28.566  20.528 -19.436  1.00  0.00     0.094 C 
ATOM     32  C   UNL     1      27.896  21.016 -18.200  1.00  0.00     0.074 C 
ATOM     33  N   UNL     1      27.537  21.373 -17.157  1.00  0.00    -0.197 NA
ATOM     34  H   UNL     1      30.354  21.577 -17.505  1.00  0.00     0.348 HD
BRANCH  31  35
ATOM     35  C   UNL     1      27.509  20.227 -20.535  1.00  0.00    -0.009 A 
ATOM     36  C   UNL     1      26.128  20.316 -20.252  1.00  0.00     0.010 A 
ATOM     37  C   UNL     1      27.872  19.847 -21.864  1.00  0.00     0.060 A 
ATOM     38  C   UNL     1      25.161  20.027 -21.222  1.00  0.00     0.039 A 
ATOM     39  C   UNL     1      26.891  19.557 -22.825  1.00  0.00     0.059 A 
ATOM     40  C   UNL     1      29.239  19.728 -22.290  1.00  0.00     0.100 C 
ATOM     41  C   UNL     1      25.551  19.646 -22.494  1.00  0.00     0.124 A 
ATOM     42  N   UNL     1      30.362  19.631 -22.566  1.00  0.00    -0.192 NA
ATOM     43  F   UNL     1      24.621  19.348 -23.411  1.00  0.00    -0.207 F 
ENDBRANCH  31  35
ENDBRANCH  25  26
ENDBRANCH  24  25
ENDBRANCH   1  24
TORSDOF 7
ENDMDL
MODEL 2
REMARK VINA RESULT:    -6.675      2.703      4.277
REMARK INTER + INTRA:         -10.590
REMARK INTER:                  -9.063
REMARK INTRA:                  -1.527
REMARK UNBOUND:                -1.183
REMARK SMILES CC1=C(C(=O)NCCC[NH+]2CCC(C#N)(c3ccc(F)cc3C#N)CC2)C(c2ccc(F)c(F)c2)NC(=O)N1C
REMARK SMILES IDX 7 1 6 2 4 3 5 4 3 6 2 7 39 8 27 9 37 10 36 11 38 12 1 13
REMARK SMILES IDX 40 14 28 16 29 17 35 18 30 19 33 20 31 21 34 22 32 23 8 24
REMARK SMILES IDX 9 25 10 26 11 27 26 28 12 29 25 30 13 31 14 32 15 33 16 35
REMARK SMILES IDX 17 36 22 37 18 38 21 39 23 40 19 41 24 42 20 43
REMARK H PARENT 6 5 36 15 10 34
ROOT
ATOM      1  C   UNL     1      34.252  22.434 -19.928  1.00  0.00     0.122 C 
ENDROOT
BRANCH   1   2
ATOM      2  N   UNL     1      34.144  23.857 -19.701  1.00  0.00    -0.352 N 
ATOM      3  C   UNL     1      35.277  24.629 -19.587  1.00  0.00     0.251 C 
ATOM      4  O   UNL     1      36.411  24.169 -19.652  1.00  0.00    -0.270 OA
ATOM      5  H   UNL     1      33.245  24.322 -19.785  1.00  0.00     0.163 HD
BRANCH   3   6
ATOM      6  C   UNL     1      35.028  26.091 -19.517  1.00  0.00     0.063 C 
ATOM      7  C   UNL     1      34.848  26.756 -18.358  1.00  0.00     0.030 C 
ATOM      8  N   UNL     1      34.609  28.136 -18.405  1.00  0.00    -0.301 N 
ATOM      9  C   UNL     1      35.048  26.762 -20.856  1.00  0.00     0.152 C 
ATOM     10  C   UNL     1      34.630  28.870 -19.586  1.00  0.00     0.322 C 
ATOM     11  N   UNL     1      34.864  28.183 -20.731  1.00  0.00    -0.327 N 
ATOM     12  O   UNL     1      34.445  30.082 -19.659  1.00  0.00    -0.248 OA
ATOM     13  C   UNL     1      34.925  26.103 -16.996  1.00  0.00     0.065 C 
ATOM     14  C   UNL     1      34.371  28.889 -17.174  1.00  0.00     0.155 C 
ATOM     15  H   UNL     1      34.896  28.761 -21.560  1.00  0.00     0.166 HD
BRANCH   9  16
ATOM     16  C   UNL     1      34.007  26.190 -21.815  1.00  0.00    -0.018 A 
ATOM     17  C   UNL     1      34.387  25.525 -22.998  1.00  0.00     0.009 A 
ATOM     18  C   UNL     1      32.637  26.365 -21.548  1.00  0.00     0.048 A 
ATOM     19  C   UNL     1      33.422  25.051 -23.891  1.00  0.00     0.043 A 
ATOM     20  C   UNL     1      31.685  25.901 -22.450  1.00  0.00     0.159 A 
ATOM     21  C   UNL     1      32.074  25.251 -23.616  1.00  0.00     0.158 A 
ATOM     22  F   UNL     1      30.385  26.114 -22.197  1.00  0.00    -0.204 F 
ATOM     23  F   UNL     1      31.149  24.810 -24.481  1.00  0.00    -0.204 F 
ENDBRANCH   9  16
ENDBRANCH   3   6
ENDBRANCH   1   2
BRANCH   1  24
ATOM     24  C   UNL     1      34.727  22.114 -21.340  1.00  0.00     0.083 C 
BRANCH  24  25
ATOM     25  C   UNL     1      33.667  21.553 -22.286  1.00  0.00     0.264 C 
BRANCH  25  26
ATOM     26  N   UNL     1      32.281  21.319 -21.707  1.00  0.00    -0.335 N 
ATOM     27  C   UNL     1      31.164  21.999 -22.441  1.00  0.00     0.264 C 
ATOM     28  C   UNL     1      31.968  19.893 -21.336  1.00  0.00     0.264 C 
ATOM     29  C   UNL     1      29.935  22.114 -21.542  1.00  0.00     0.089 C 
ATOM     30  C   UNL     1      30.457  19.678 -21.164  1.00  0.00     0.089 C 
ATOM     31  C   UNL     1      29.694  20.906 -20.584  1.00  0.00     0.094 C 
ATOM     32  C   UNL     1      30.344  21.185 -19.275  1.00  0.00     0.074 C 
ATOM     33  N   UNL     1      31.009  21.380 -18.346  1.00  0.00    -0.197 NA
ATOM     34  H   UNL     1      32.364  21.828 -20.808  1.00  0.00     0.348 HD
BRANCH  31  35
ATOM     35  C   UNL     1      28.171  20.673 -20.386  1.00  0.00    -0.009 A 
ATOM     36  C   UNL     1      27.557  20.928 -19.139  1.00  0.00     0.010 A 
ATOM     37  C   UNL     1      27.327  20.190 -21.434  1.00  0.00     0.060 A 
ATOM     38  C   UNL     1      26.190  20.701 -18.935  1.00  0.00     0.039 A 
ATOM     39  C   UNL     1      25.958  19.965 -21.213  1.00  0.00     0.059 A 
ATOM     40  C   UNL     1      27.817  19.899 -22.752  1.00  0.00     0.100 C 
ATOM     41  C   UNL     1      25.408  20.218 -19.969  1.00  0.00     0.124 A 
ATOM     42  N   UNL     1      28.279  19.664 -23.791  1.00  0.00    -0.192 NA
ATOM     43  F   UNL     1      24.107  19.982 -19.761  1.00  0.00    -0.207 F 
ENDBRANCH  31  35
ENDBRANCH  25  26
ENDBRANCH  24  25
ENDBRANCH   1  24
TORSDOF 7
ENDMDL
MODEL 3
REMARK VINA RESULT:    -6.573      2.806      4.643
REMARK INTER + INTRA:         -10.445
REMARK INTER:                  -8.693
REMARK INTRA:                  -1.753
REMARK UNBOUND:                -1.183
REMARK SMILES CC1=C(C(=O)NCCC[NH+]2CCC(C#N)(c3ccc(F)cc3C#N)CC2)C(c2ccc(F)c(F)c2)NC(=O)N1C
REMARK SMILES IDX 7 1 6 2 4 3 5 4 3 6 2 7 39 8 27 9 37 10 36 11 38 12 1 13
REMARK SMILES IDX 40 14 28 16 29 17 35 18 30 19 33 20 31 21 34 22 32 23 8 24
REMARK SMILES IDX 9 25 10 26 11 27 26 28 12 29 25 30 13 31 14 32 15 33 16 35
REMARK SMILES IDX 17 36 22 37 18 38 21 39 23 40 19 41 24 42 20 43
REMARK H PARENT 6 5 36 15 10 34
ROOT
ATOM      1  C   UNL     1      35.398  22.277 -20.457  1.00  0.00     0.122 C 
ENDROOT
BRANCH   1   2
ATOM      2  N   UNL     1      35.025  23.579 -19.955  1.00  0.00    -0.352 N 
ATOM      3  C   UNL     1      35.857  24.660 -20.144  1.00  0.00     0.251 C 
ATOM      4  O   UNL     1      36.937  24.581 -20.717  1.00  0.00    -0.270 OA
ATOM      5  H   UNL     1      34.086  23.745 -19.607  1.00  0.00     0.163 HD
BRANCH   3   6
ATOM      6  C   UNL     1      35.286  25.964 -19.724  1.00  0.00     0.063 C 
ATOM      7  C   UNL     1      35.218  26.362 -18.437  1.00  0.00     0.030 C 
ATOM      8  N   UNL     1      34.651  27.610 -18.149  1.00  0.00    -0.301 N 
ATOM      9  C   UNL     1      34.842  26.816 -20.873  1.00  0.00     0.152 C 
ATOM     10  C   UNL     1      34.227  28.497 -19.133  1.00  0.00     0.322 C 
ATOM     11  N   UNL     1      34.356  28.092 -20.420  1.00  0.00    -0.327 N 
ATOM     12  O   UNL     1      33.746  29.605 -18.915  1.00  0.00    -0.248 OA
ATOM     13  C   UNL     1      35.754  25.550 -17.279  1.00  0.00     0.065 C 
ATOM     14  C   UNL     1      34.522  28.064 -16.764  1.00  0.00     0.155 C 
ATOM     15  H   UNL     1      34.061  28.779 -21.101  1.00  0.00     0.166 HD
BRANCH   9  16
ATOM     16  C   UNL     1      33.781  26.135 -21.733  1.00  0.00    -0.018 A 
ATOM     17  C   UNL     1      34.053  25.742 -23.059  1.00  0.00     0.009 A 
ATOM     18  C   UNL     1      32.487  25.933 -21.220  1.00  0.00     0.048 A 
ATOM     19  C   UNL     1      33.055  25.165 -23.850  1.00  0.00     0.043 A 
ATOM     20  C   UNL     1      31.498  25.370 -22.021  1.00  0.00     0.159 A 
ATOM     21  C   UNL     1      31.778  24.992 -23.328  1.00  0.00     0.158 A 
ATOM     22  F   UNL     1      30.260  25.224 -21.526  1.00  0.00    -0.204 F 
ATOM     23  F   UNL     1      30.818  24.453 -24.094  1.00  0.00    -0.204 F 
ENDBRANCH   9  16
ENDBRANCH   3   6
ENDBRANCH   1   2
BRANCH   1  24
ATOM     24  C   UNL     1      34.554  21.863 -21.656  1.00  0.00     0.083 C 
BRANCH  24  25
ATOM     25  C   UNL     1      33.909  20.481 -21.568  1.00  0.00     0.264 C 
BRANCH  25  26
ATOM     26  N   UNL     1      32.389  20.429 -21.540  1.00  0.00    -0.335 N 
ATOM     27  C   UNL     1      31.803  19.634 -20.412  1.00  0.00     0.264 C 
ATOM     28  C   UNL     1      31.695  21.747 -21.765  1.00  0.00     0.264 C 
ATOM     29  C   UNL     1      30.363  19.240 -20.738  1.00  0.00     0.089 C 
ATOM     30  C   UNL     1      30.227  21.690 -21.314  1.00  0.00     0.089 C 
ATOM     31  C   UNL     1      29.542  20.306 -21.527  1.00  0.00     0.094 C 
ATOM     32  C   UNL     1      29.662  20.034 -22.985  1.00  0.00     0.074 C 
ATOM     33  N   UNL     1      29.929  19.877 -24.102  1.00  0.00    -0.197 NA
ATOM     34  H   UNL     1      32.204  19.869 -22.393  1.00  0.00     0.348 HD
BRANCH  31  35
ATOM     35  C   UNL     1      28.050  20.263 -21.095  1.00  0.00    -0.009 A 
ATOM     36  C   UNL     1      27.038  19.936 -22.025  1.00  0.00     0.010 A 
ATOM     37  C   UNL     1      27.630  20.552 -19.760  1.00  0.00     0.060 A 
ATOM     38  C   UNL     1      25.686  19.915 -21.660  1.00  0.00     0.039 A 
ATOM     39  C   UNL     1      26.270  20.530 -19.410  1.00  0.00     0.059 A 
ATOM     40  C   UNL     1      28.554  20.890 -18.712  1.00  0.00     0.100 C 
ATOM     41  C   UNL     1      25.317  20.216 -20.362  1.00  0.00     0.124 A 
ATOM     42  N   UNL     1      29.348  21.175 -17.916  1.00  0.00    -0.192 NA
ATOM     43  F   UNL     1      24.020  20.217 -20.025  1.00  0.00    -0.207 F 
ENDBRANCH  31  35
ENDBRANCH  25  26
ENDBRANCH  24  25
ENDBRANCH   1  24
TORSDOF 7
ENDMDL
MODEL 4
REMARK VINA RESULT:    -6.547      2.918      5.145
REMARK INTER + INTRA:         -10.410
REMARK INTER:                  -8.403
REMARK INTRA:                  -2.007
REMARK UNBOUND:                -1.183
REMARK SMILES CC1=C(C(=O)NCCC[NH+]2CCC(C#N)(c3ccc(F)cc3C#N)CC2)C(c2ccc(F)c(F)c2)NC(=O)N1C
REMARK SMILES IDX 7 1 6 2 4 3 5 4 3 6 2 7 39 8 27 9 37 10 36 11 38 12 1 13
REMARK SMILES IDX 40 14 28 16 29 17 35 18 30 19 33 20 31 21 34 22 32 23 8 24
REMARK SMILES IDX 9 25 10 26 11 27 26 28 12 29 25 30 13 31 14 32 15 33 16 35
REMARK SMILES IDX 17 36 22 37 18 38 21 39 23 40 19 41 24 42 20 43
REMARK H PARENT 6 5 36 15 10 34
ROOT
ATOM      1  C   UNL     1      34.390  21.470 -23.943  1.00  0.00     0.122 C 
ENDROOT
BRANCH   1   2
ATOM      2  N   UNL     1      33.886  21.521 -22.589  1.00  0.00    -0.352 N 
ATOM      3  C   UNL     1      34.704  21.929 -21.560  1.00  0.00     0.251 C 
ATOM      4  O   UNL     1      35.876  22.245 -21.721  1.00  0.00    -0.270 OA
ATOM      5  H   UNL     1      32.893  21.418 -22.408  1.00  0.00     0.163 HD
BRANCH   3   6
ATOM      6  C   UNL     1      34.022  22.090 -20.251  1.00  0.00     0.063 C 
ATOM      7  C   UNL     1      33.631  21.050 -19.487  1.00  0.00     0.030 C 
ATOM      8  N   UNL     1      32.986  21.315 -18.272  1.00  0.00    -0.301 N 
ATOM      9  C   UNL     1      33.858  23.521 -19.840  1.00  0.00     0.152 C 
ATOM     10  C   UNL     1      32.801  22.600 -17.774  1.00  0.00     0.322 C 
ATOM     11  N   UNL     1      33.250  23.624 -18.540  1.00  0.00    -0.327 N 
ATOM     12  O   UNL     1      32.258  22.864 -16.705  1.00  0.00    -0.248 OA
ATOM     13  C   UNL     1      33.882  19.603 -19.849  1.00  0.00     0.065 C 
ATOM     14  C   UNL     1      32.512  20.216 -17.430  1.00  0.00     0.155 C 
ATOM     15  H   UNL     1      33.118  24.538 -18.127  1.00  0.00     0.166 HD
BRANCH   9  16
ATOM     16  C   UNL     1      33.055  24.334 -20.851  1.00  0.00    -0.018 A 
ATOM     17  C   UNL     1      33.642  25.392 -21.574  1.00  0.00     0.009 A 
ATOM     18  C   UNL     1      31.687  24.064 -21.040  1.00  0.00     0.048 A 
ATOM     19  C   UNL     1      32.880  26.160 -22.459  1.00  0.00     0.043 A 
ATOM     20  C   UNL     1      30.935  24.843 -21.914  1.00  0.00     0.159 A 
ATOM     21  C   UNL     1      31.526  25.886 -22.617  1.00  0.00     0.158 A 
ATOM     22  F   UNL     1      29.624  24.594 -22.049  1.00  0.00    -0.204 F 
ATOM     23  F   UNL     1      30.792  26.634 -23.455  1.00  0.00    -0.204 F 
ENDBRANCH   9  16
ENDBRANCH   3   6
ENDBRANCH   1   2
BRANCH   1  24
ATOM     24  C   UNL     1      33.395  20.825 -24.899  1.00  0.00     0.083 C 
BRANCH  24  25
ATOM     25  C   UNL     1      32.763  19.519 -24.419  1.00  0.00     0.264 C 
BRANCH  25  26
ATOM     26  N   UNL     1      31.346  19.599 -23.872  1.00  0.00    -0.335 N 
ATOM     27  C   UNL     1      31.192  19.160 -22.447  1.00  0.00     0.264 C 
ATOM     28  C   UNL     1      30.603  20.870 -24.188  1.00  0.00     0.264 C 
ATOM     29  C   UNL     1      29.732  18.814 -22.157  1.00  0.00     0.089 C 
ATOM     30  C   UNL     1      29.381  21.046 -23.273  1.00  0.00     0.089 C 
ATOM     31  C   UNL     1      28.679  19.713 -22.875  1.00  0.00     0.094 C 
ATOM     32  C   UNL     1      28.293  19.077 -24.164  1.00  0.00     0.074 C 
ATOM     33  N   UNL     1      28.161  18.626 -25.224  1.00  0.00    -0.197 NA
ATOM     34  H   UNL     1      30.885  18.861 -24.436  1.00  0.00     0.348 HD
BRANCH  31  35
ATOM     35  C   UNL     1      27.427  19.899 -21.974  1.00  0.00    -0.009 A 
ATOM     36  C   UNL     1      26.139  19.560 -22.447  1.00  0.00     0.010 A 
ATOM     37  C   UNL     1      27.510  20.418 -20.645  1.00  0.00     0.060 A 
ATOM     38  C   UNL     1      24.997  19.742 -21.658  1.00  0.00     0.039 A 
ATOM     39  C   UNL     1      26.355  20.598 -19.867  1.00  0.00     0.059 A 
ATOM     40  C   UNL     1      28.755  20.795 -20.036  1.00  0.00     0.100 C 
ATOM     41  C   UNL     1      25.115  20.263 -20.382  1.00  0.00     0.124 A 
ATOM     42  N   UNL     1      29.790  21.097 -19.608  1.00  0.00    -0.192 NA
ATOM     43  F   UNL     1      24.016  20.456 -19.641  1.00  0.00    -0.207 F 
ENDBRANCH  31  35
ENDBRANCH  25  26
ENDBRANCH  24  25
ENDBRANCH   1  24
TORSDOF 7
ENDMDL
MODEL 5
REMARK VINA RESULT:    -6.425      2.963      4.961
REMARK INTER + INTRA:         -10.237
REMARK INTER:                  -8.756
REMARK INTRA:                  -1.481
REMARK UNBOUND:                -1.183
REMARK SMILES CC1=C(C(=O)NCCC[NH+]2CCC(C#N)(c3ccc(F)cc3C#N)CC2)C(c2ccc(F)c(F)c2)NC(=O)N1C
REMARK SMILES IDX 7 1 6 2 4 3 5 4 3 6 2 7 39 8 27 9 37 10 36 11 38 12 1 13
REMARK SMILES IDX 40 14 28 16 29 17 35 18 30 19 33 20 31 21 34 22 32 23 8 24
REMARK SMILES IDX 9 25 10 26 11 27 26 28 12 29 25 30 13 31 14 32 15 33 16 35
REMARK SMILES IDX 17 36 22 37 18 38 21 39 23 40 19 41 24 42 20 43
REMARK H PARENT 6 5 36 15 10 34
ROOT
ATOM      1  C   UNL     1      34.650  21.891 -23.995  1.00  0.00     0.122 C 
ENDROOT
BRANCH   1   2
ATOM      2  N   UNL     1      35.009  22.604 -22.791  1.00  0.00    -0.352 N 
ATOM      3  C   UNL     1      35.718  23.782 -22.868  1.00  0.00     0.251 C 
ATOM      4  O   UNL     1      36.089  24.272 -23.928  1.00  0.00    -0.270 OA
ATOM      5  H   UNL     1      34.609  22.336 -21.898  1.00  0.00     0.163 HD
BRANCH   3   6
ATOM      6  C   UNL     1      35.882  24.493 -21.576  1.00  0.00     0.063 C 
ATOM      7  C   UNL     1      36.662  24.038 -20.574  1.00  0.00     0.030 C 
ATOM      8  N   UNL     1      36.739  24.784 -19.391  1.00  0.00    -0.301 N 
ATOM      9  C   UNL     1      35.138  25.792 -21.514  1.00  0.00     0.152 C 
ATOM     10  C   UNL     1      36.114  26.015 -19.227  1.00  0.00     0.322 C 
ATOM     11  N   UNL     1      35.378  26.473 -20.270  1.00  0.00    -0.327 N 
ATOM     12  O   UNL     1      36.179  26.703 -18.212  1.00  0.00    -0.248 OA
ATOM     13  C   UNL     1      37.495  22.778 -20.666  1.00  0.00     0.065 C 
ATOM     14  C   UNL     1      37.543  24.307 -18.266  1.00  0.00     0.155 C 
ATOM     15  H   UNL     1      34.965  27.382 -20.116  1.00  0.00     0.166 HD
BRANCH   9  16
ATOM     16  C   UNL     1      33.637  25.619 -21.726  1.00  0.00    -0.018 A 
ATOM     17  C   UNL     1      32.856  24.843 -20.847  1.00  0.00     0.009 A 
ATOM     18  C   UNL     1      33.016  26.203 -22.846  1.00  0.00     0.048 A 
ATOM     19  C   UNL     1      31.492  24.653 -21.084  1.00  0.00     0.043 A 
ATOM     20  C   UNL     1      31.660  25.996 -23.080  1.00  0.00     0.159 A 
ATOM     21  C   UNL     1      30.903  25.224 -22.207  1.00  0.00     0.158 A 
ATOM     22  F   UNL     1      31.097  26.527 -24.175  1.00  0.00    -0.204 F 
ATOM     23  F   UNL     1      29.597  25.027 -22.442  1.00  0.00    -0.204 F 
ENDBRANCH   9  16
ENDBRANCH   3   6
ENDBRANCH   1   2
BRANCH   1  24
ATOM     24  C   UNL     1      33.261  22.271 -24.493  1.00  0.00     0.083 C 
BRANCH  24  25
ATOM     25  C   UNL     1      32.378  21.111 -24.948  1.00  0.00     0.264 C 
BRANCH  25  26
ATOM     26  N   UNL     1      31.179  20.773 -24.075  1.00  0.00    -0.335 N 
ATOM     27  C   UNL     1      30.430  21.956 -23.540  1.00  0.00     0.264 C 
ATOM     28  C   UNL     1      30.279  19.688 -24.606  1.00  0.00     0.264 C 
ATOM     29  C   UNL     1      29.593  21.547 -22.329  1.00  0.00     0.089 C 
ATOM     30  C   UNL     1      28.913  19.702 -23.904  1.00  0.00     0.089 C 
ATOM     31  C   UNL     1      28.963  20.122 -22.405  1.00  0.00     0.094 C 
ATOM     32  C   UNL     1      29.884  19.147 -21.759  1.00  0.00     0.074 C 
ATOM     33  N   UNL     1      30.710  18.417 -21.401  1.00  0.00    -0.197 NA
ATOM     34  H   UNL     1      31.657  20.359 -23.253  1.00  0.00     0.348 HD
BRANCH  31  35
ATOM     35  C   UNL     1      27.582  20.106 -21.693  1.00  0.00    -0.009 A 
ATOM     36  C   UNL     1      26.406  19.781 -22.405  1.00  0.00     0.010 A 
ATOM     37  C   UNL     1      27.431  20.418 -20.306  1.00  0.00     0.060 A 
ATOM     38  C   UNL     1      25.150  19.784 -21.787  1.00  0.00     0.039 A 
ATOM     39  C   UNL     1      26.165  20.419 -19.701  1.00  0.00     0.059 A 
ATOM     40  C   UNL     1      28.543  20.756 -19.462  1.00  0.00     0.100 C 
ATOM     41  C   UNL     1      25.041  20.107 -20.446  1.00  0.00     0.124 A 
ATOM     42  N   UNL     1      29.480  21.040 -18.838  1.00  0.00    -0.192 NA
ATOM     43  F   UNL     1      23.835  20.130 -19.866  1.00  0.00    -0.207 F 
ENDBRANCH  31  35
ENDBRANCH  25  26
ENDBRANCH  24  25
ENDBRANCH   1  24
TORSDOF 7
ENDMDL
MODEL 6
REMARK VINA RESULT:    -6.394      5.612      7.514
REMARK INTER + INTRA:         -10.194
REMARK INTER:                  -8.145
REMARK INTRA:                  -2.049
REMARK UNBOUND:                -1.183
REMARK SMILES CC1=C(C(=O)NCCC[NH+]2CCC(C#N)(c3ccc(F)cc3C#N)CC2)C(c2ccc(F)c(F)c2)NC(=O)N1C
REMARK SMILES IDX 7 1 6 2 4 3 5 4 3 6 2 7 39 8 27 9 37 10 36 11 38 12 1 13
REMARK SMILES IDX 40 14 28 16 29 17 35 18 30 19 33 20 31 21 34 22 32 23 8 24
REMARK SMILES IDX 9 25 10 26 11 27 26 28 12 29 25 30 13 31 14 32 15 33 16 35
REMARK SMILES IDX 17 36 22 37 18 38 21 39 23 40 19 41 24 42 20 43
REMARK H PARENT 6 5 36 15 10 34
ROOT
ATOM      1  C   UNL     1      36.596  27.268 -14.956  1.00  0.00     0.122 C 
ENDROOT
BRANCH   1   2
ATOM      2  N   UNL     1      35.223  27.695 -15.104  1.00  0.00    -0.352 N 
ATOM      3  C   UNL     1      34.813  28.904 -14.589  1.00  0.00     0.251 C 
ATOM      4  O   UNL     1      35.560  29.659 -13.978  1.00  0.00    -0.270 OA
ATOM      5  H   UNL     1      34.594  27.192 -15.722  1.00  0.00     0.163 HD
BRANCH   3   6
ATOM      6  C   UNL     1      33.427  29.293 -14.947  1.00  0.00     0.063 C 
ATOM      7  C   UNL     1      32.334  28.658 -14.477  1.00  0.00     0.030 C 
ATOM      8  N   UNL     1      31.070  29.102 -14.887  1.00  0.00    -0.301 N 
ATOM      9  C   UNL     1      33.359  30.493 -15.842  1.00  0.00     0.152 C 
ATOM     10  C   UNL     1      30.882  30.219 -15.694  1.00  0.00     0.322 C 
ATOM     11  N   UNL     1      31.997  30.868 -16.110  1.00  0.00    -0.327 N 
ATOM     12  O   UNL     1      29.788  30.645 -16.053  1.00  0.00    -0.248 OA
ATOM     13  C   UNL     1      32.391  27.508 -13.495  1.00  0.00     0.065 C 
ATOM     14  C   UNL     1      29.860  28.418 -14.430  1.00  0.00     0.155 C 
ATOM     15  H   UNL     1      31.811  31.689 -16.671  1.00  0.00     0.166 HD
BRANCH   9  16
ATOM     16  C   UNL     1      34.106  30.288 -17.157  1.00  0.00    -0.018 A 
ATOM     17  C   UNL     1      35.312  30.965 -17.429  1.00  0.00     0.009 A 
ATOM     18  C   UNL     1      33.566  29.444 -18.145  1.00  0.00     0.048 A 
ATOM     19  C   UNL     1      35.957  30.804 -18.659  1.00  0.00     0.043 A 
ATOM     20  C   UNL     1      34.210  29.302 -19.371  1.00  0.00     0.159 A 
ATOM     21  C   UNL     1      35.396  29.980 -19.628  1.00  0.00     0.158 A 
ATOM     22  F   UNL     1      33.657  28.526 -20.314  1.00  0.00    -0.204 F 
ATOM     23  F   UNL     1      36.008  29.840 -20.813  1.00  0.00    -0.204 F 
ENDBRANCH   9  16
ENDBRANCH   3   6
ENDBRANCH   1   2
BRANCH   1  24
ATOM     24  C   UNL     1      37.287  27.088 -16.301  1.00  0.00     0.083 C 
BRANCH  24  25
ATOM     25  C   UNL     1      37.184  25.694 -16.919  1.00  0.00     0.264 C 
BRANCH  25  26
ATOM     26  N   UNL     1      36.388  25.569 -18.209  1.00  0.00    -0.335 N 
ATOM     27  C   UNL     1      34.964  26.031 -18.121  1.00  0.00     0.264 C 
ATOM     28  C   UNL     1      37.093  26.045 -19.452  1.00  0.00     0.264 C 
ATOM     29  C   UNL     1      34.144  25.430 -19.262  1.00  0.00     0.089 C 
ATOM     30  C   UNL     1      36.103  26.274 -20.604  1.00  0.00     0.089 C 
ATOM     31  C   UNL     1      34.896  25.288 -20.621  1.00  0.00     0.094 C 
ATOM     32  C   UNL     1      35.504  23.932 -20.703  1.00  0.00     0.074 C 
ATOM     33  N   UNL     1      36.092  22.935 -20.637  1.00  0.00    -0.197 NA
ATOM     34  H   UNL     1      36.334  24.538 -18.298  1.00  0.00     0.348 HD
BRANCH  31  35
ATOM     35  C   UNL     1      33.914  25.506 -21.805  1.00  0.00    -0.009 A 
ATOM     36  C   UNL     1      32.565  25.853 -21.570  1.00  0.00     0.010 A 
ATOM     37  C   UNL     1      34.315  25.365 -23.170  1.00  0.00     0.060 A 
ATOM     38  C   UNL     1      31.659  26.032 -22.623  1.00  0.00     0.039 A 
ATOM     39  C   UNL     1      33.395  25.544 -24.215  1.00  0.00     0.059 A 
ATOM     40  C   UNL     1      35.658  25.025 -23.552  1.00  0.00     0.100 C 
ATOM     41  C   UNL     1      32.081  25.870 -23.931  1.00  0.00     0.124 A 
ATOM     42  N   UNL     1      36.754  24.731 -23.794  1.00  0.00    -0.192 NA
ATOM     43  F   UNL     1      31.205  26.020 -24.933  1.00  0.00    -0.207 F 
ENDBRANCH  31  35
ENDBRANCH  25  26
ENDBRANCH  24  25
ENDBRANCH   1  24
TORSDOF 7
ENDMDL
MODEL 7
REMARK VINA RESULT:    -6.308      3.124      3.891
REMARK INTER + INTRA:         -10.072
REMARK INTER:                  -8.211
REMARK INTRA:                  -1.861
REMARK UNBOUND:                -1.183
REMARK SMILES CC1=C(C(=O)NCCC[NH+]2CCC(C#N)(c3ccc(F)cc3C#N)CC2)C(c2ccc(F)c(F)c2)NC(=O)N1C
REMARK SMILES IDX 7 1 6 2 4 3 5 4 3 6 2 7 39 8 27 9 37 10 36 11 38 12 1 13
REMARK SMILES IDX 40 14 28 16 29 17 35 18 30 19 33 20 31 21 34 22 32 23 8 24
REMARK SMILES IDX 9 25 10 26 11 27 26 28 12 29 25 30 13 31 14 32 15 33 16 35
REMARK SMILES IDX 17 36 22 37 18 38 21 39 23 40 19 41 24 42 20 43
REMARK H PARENT 6 5 36 15 10 34
ROOT
ATOM      1  C   UNL     1      33.995  21.940 -18.556  1.00  0.00     0.122 C 
ENDROOT
BRANCH   1   2
ATOM      2  N   UNL     1      33.868  21.457 -19.912  1.00  0.00    -0.352 N 
ATOM      3  C   UNL     1      34.253  22.250 -20.970  1.00  0.00     0.251 C 
ATOM      4  O   UNL     1      34.696  23.384 -20.830  1.00  0.00    -0.270 OA
ATOM      5  H   UNL     1      33.651  20.482 -20.091  1.00  0.00     0.163 HD
BRANCH   3   6
ATOM      6  C   UNL     1      34.221  21.579 -22.293  1.00  0.00     0.063 C 
ATOM      7  C   UNL     1      35.287  20.954 -22.832  1.00  0.00     0.030 C 
ATOM      8  N   UNL     1      35.151  20.360 -24.094  1.00  0.00    -0.301 N 
ATOM      9  C   UNL     1      32.874  21.620 -22.948  1.00  0.00     0.152 C 
ATOM     10  C   UNL     1      33.946  20.313 -24.785  1.00  0.00     0.322 C 
ATOM     11  N   UNL     1      32.878  20.905 -24.196  1.00  0.00    -0.327 N 
ATOM     12  O   UNL     1      33.789  19.783 -25.881  1.00  0.00    -0.248 OA
ATOM     13  C   UNL     1      36.623  20.822 -22.134  1.00  0.00     0.065 C 
ATOM     14  C   UNL     1      36.294  19.705 -24.731  1.00  0.00     0.155 C 
ATOM     15  H   UNL     1      32.018  20.822 -24.721  1.00  0.00     0.166 HD
BRANCH   9  16
ATOM     16  C   UNL     1      32.373  23.044 -23.170  1.00  0.00    -0.018 A 
ATOM     17  C   UNL     1      33.135  23.987 -23.890  1.00  0.00     0.009 A 
ATOM     18  C   UNL     1      31.148  23.451 -22.611  1.00  0.00     0.048 A 
ATOM     19  C   UNL     1      32.685  25.301 -24.041  1.00  0.00     0.043 A 
ATOM     20  C   UNL     1      30.715  24.766 -22.757  1.00  0.00     0.159 A 
ATOM     21  C   UNL     1      31.480  25.686 -23.464  1.00  0.00     0.158 A 
ATOM     22  F   UNL     1      29.565  25.144 -22.181  1.00  0.00    -0.204 F 
ATOM     23  F   UNL     1      31.057  26.952 -23.596  1.00  0.00    -0.204 F 
ENDBRANCH   9  16
ENDBRANCH   3   6
ENDBRANCH   1   2
BRANCH   1  24
ATOM     24  C   UNL     1      32.702  22.563 -18.047  1.00  0.00     0.083 C 
BRANCH  24  25
ATOM     25  C   UNL     1      31.707  21.598 -17.405  1.00  0.00     0.264 C 
BRANCH  25  26
ATOM     26  N   UNL     1      30.485  21.218 -18.229  1.00  0.00    -0.335 N 
ATOM     27  C   UNL     1      30.530  21.649 -19.664  1.00  0.00     0.264 C 
ATOM     28  C   UNL     1      29.997  19.805 -18.046  1.00  0.00     0.264 C 
ATOM     29  C   UNL     1      29.120  21.668 -20.253  1.00  0.00     0.089 C 
ATOM     30  C   UNL     1      29.058  19.385 -19.187  1.00  0.00     0.089 C 
ATOM     31  C   UNL     1      28.171  20.538 -19.747  1.00  0.00     0.094 C 
ATOM     32  C   UNL     1      27.399  21.037 -18.577  1.00  0.00     0.074 C 
ATOM     33  N   UNL     1      26.957  21.420 -17.576  1.00  0.00    -0.197 NA
ATOM     34  H   UNL     1      29.766  21.819 -17.787  1.00  0.00     0.348 HD
BRANCH  31  35
ATOM     35  C   UNL     1      27.203  20.101 -20.881  1.00  0.00    -0.009 A 
ATOM     36  C   UNL     1      25.803  20.146 -20.693  1.00  0.00     0.010 A 
ATOM     37  C   UNL     1      27.669  19.633 -22.149  1.00  0.00     0.060 A 
ATOM     38  C   UNL     1      24.916  19.735 -21.695  1.00  0.00     0.039 A 
ATOM     39  C   UNL     1      26.767  19.221 -23.142  1.00  0.00     0.059 A 
ATOM     40  C   UNL     1      29.065  19.544 -22.477  1.00  0.00     0.100 C 
ATOM     41  C   UNL     1      25.405  19.273 -22.904  1.00  0.00     0.124 A 
ATOM     42  N   UNL     1      30.206  19.479 -22.674  1.00  0.00    -0.192 NA
ATOM     43  F   UNL     1      24.551  18.859 -23.849  1.00  0.00    -0.207 F 
ENDBRANCH  31  35
ENDBRANCH  25  26
ENDBRANCH  24  25
ENDBRANCH   1  24
TORSDOF 7
ENDMDL
MODEL 8
REMARK VINA RESULT:    -6.291      3.258      5.193
REMARK INTER + INTRA:         -10.049
REMARK INTER:                  -8.538
REMARK INTRA:                  -1.511
REMARK UNBOUND:                -1.183
REMARK SMILES CC1=C(C(=O)NCCC[NH+]2CCC(C#N)(c3ccc(F)cc3C#N)CC2)C(c2ccc(F)c(F)c2)NC(=O)N1C
REMARK SMILES IDX 7 1 6 2 4 3 5 4 3 6 2 7 39 8 27 9 37 10 36 11 38 12 1 13
REMARK SMILES IDX 40 14 28 16 29 17 35 18 30 19 33 20 31 21 34 22 32 23 8 24
REMARK SMILES IDX 9 25 10 26 11 27 26 28 12 29 25 30 13 31 14 32 15 33 16 35
REMARK SMILES IDX 17 36 22 37 18 38 21 39 23 40 19 41 24 42 20 43
REMARK H PARENT 6 5 36 15 10 34
ROOT
ATOM      1  C   UNL     1      33.432  20.957 -24.367  1.00  0.00     0.122 C 
ENDROOT
BRANCH   1   2
ATOM      2  N   UNL     1      34.257  21.842 -23.578  1.00  0.00    -0.352 N 
ATOM      3  C   UNL     1      35.122  22.717 -24.194  1.00  0.00     0.251 C 
ATOM      4  O   UNL     1      35.254  22.784 -25.411  1.00  0.00    -0.270 OA
ATOM      5  H   UNL     1      34.091  21.944 -22.582  1.00  0.00     0.163 HD
BRANCH   3   6
ATOM      6  C   UNL     1      35.790  23.678 -23.281  1.00  0.00     0.063 C 
ATOM      7  C   UNL     1      36.803  23.336 -22.459  1.00  0.00     0.030 C 
ATOM      8  N   UNL     1      37.356  24.320 -21.629  1.00  0.00    -0.301 N 
ATOM      9  C   UNL     1      35.262  25.075 -23.399  1.00  0.00     0.152 C 
ATOM     10  C   UNL     1      36.966  25.654 -21.669  1.00  0.00     0.322 C 
ATOM     11  N   UNL     1      35.981  25.979 -22.541  1.00  0.00    -0.327 N 
ATOM     12  O   UNL     1      37.445  26.543 -20.970  1.00  0.00    -0.248 OA
ATOM     13  C   UNL     1      37.407  21.950 -22.405  1.00  0.00     0.065 C 
ATOM     14  C   UNL     1      38.430  23.983 -20.695  1.00  0.00     0.155 C 
ATOM     15  H   UNL     1      35.749  26.963 -22.555  1.00  0.00     0.166 HD
BRANCH   9  16
ATOM     16  C   UNL     1      33.767  25.165 -23.107  1.00  0.00    -0.018 A 
ATOM     17  C   UNL     1      32.864  25.685 -24.056  1.00  0.00     0.009 A 
ATOM     18  C   UNL     1      33.274  24.768 -21.851  1.00  0.00     0.048 A 
ATOM     19  C   UNL     1      31.504  25.807 -23.753  1.00  0.00     0.043 A 
ATOM     20  C   UNL     1      31.921  24.906 -21.555  1.00  0.00     0.159 A 
ATOM     21  C   UNL     1      31.042  25.426 -22.498  1.00  0.00     0.158 A 
ATOM     22  F   UNL     1      31.478  24.560 -20.338  1.00  0.00    -0.204 F 
ATOM     23  F   UNL     1      29.740  25.559 -22.204  1.00  0.00    -0.204 F 
ENDBRANCH   9  16
ENDBRANCH   3   6
ENDBRANCH   1   2
BRANCH   1  24
ATOM     24  C   UNL     1      32.030  21.516 -24.578  1.00  0.00     0.083 C 
BRANCH  24  25
ATOM     25  C   UNL     1      30.890  20.504 -24.482  1.00  0.00     0.264 C 
BRANCH  25  26
ATOM     26  N   UNL     1      30.110  20.466 -23.177  1.00  0.00    -0.335 N 
ATOM     27  C   UNL     1      29.953  21.792 -22.494  1.00  0.00     0.264 C 
ATOM     28  C   UNL     1      28.839  19.658 -23.208  1.00  0.00     0.264 C 
ATOM     29  C   UNL     1      29.611  21.588 -21.019  1.00  0.00     0.089 C 
ATOM     30  C   UNL     1      27.925  20.008 -22.024  1.00  0.00     0.089 C 
ATOM     31  C   UNL     1      28.682  20.373 -20.712  1.00  0.00     0.094 C 
ATOM     32  C   UNL     1      29.522  19.183 -20.404  1.00  0.00     0.074 C 
ATOM     33  N   UNL     1      30.219  18.259 -20.342  1.00  0.00    -0.197 NA
ATOM     34  H   UNL     1      30.765  19.929 -22.581  1.00  0.00     0.348 HD
BRANCH  31  35
ATOM     35  C   UNL     1      27.752  20.697 -19.510  1.00  0.00    -0.009 A 
ATOM     36  C   UNL     1      26.347  20.654 -19.651  1.00  0.00     0.010 A 
ATOM     37  C   UNL     1      28.260  21.054 -18.223  1.00  0.00     0.060 A 
ATOM     38  C   UNL     1      25.493  20.965 -18.586  1.00  0.00     0.039 A 
ATOM     39  C   UNL     1      27.391  21.366 -17.165  1.00  0.00     0.059 A 
ATOM     40  C   UNL     1      29.667  21.127 -17.937  1.00  0.00     0.100 C 
ATOM     41  C   UNL     1      26.022  21.322 -17.359  1.00  0.00     0.124 A 
ATOM     42  N   UNL     1      30.814  21.187 -17.775  1.00  0.00    -0.192 NA
ATOM     43  F   UNL     1      25.200  21.641 -16.351  1.00  0.00    -0.207 F 
ENDBRANCH  31  35
ENDBRANCH  25  26
ENDBRANCH  24  25
ENDBRANCH   1  24
TORSDOF 7
ENDMDL
MODEL 9
REMARK VINA RESULT:    -6.250      3.312      5.275
REMARK INTER + INTRA:          -9.991
REMARK INTER:                  -8.494
REMARK INTRA:                  -1.497
REMARK UNBOUND:                -1.183
REMARK SMILES CC1=C(C(=O)NCCC[NH+]2CCC(C#N)(c3ccc(F)cc3C#N)CC2)C(c2ccc(F)c(F)c2)NC(=O)N1C
REMARK SMILES IDX 7 1 6 2 4 3 5 4 3 6 2 7 39 8 27 9 37 10 36 11 38 12 1 13
REMARK SMILES IDX 40 14 28 16 29 17 35 18 30 19 33 20 31 21 34 22 32 23 8 24
REMARK SMILES IDX 9 25 10 26 11 27 26 28 12 29 25 30 13 31 14 32 15 33 16 35
REMARK SMILES IDX 17 36 22 37 18 38 21 39 23 40 19 41 24 42 20 43
REMARK H PARENT 6 5 36 15 10 34
ROOT
ATOM      1  C   UNL     1      35.565  22.729 -22.629  1.00  0.00     0.122 C 
ENDROOT
BRANCH   1   2
ATOM      2  N   UNL     1      35.330  23.745 -21.628  1.00  0.00    -0.352 N 
ATOM      3  C   UNL     1      35.760  25.035 -21.835  1.00  0.00     0.251 C 
ATOM      4  O   UNL     1      36.365  25.386 -22.841  1.00  0.00    -0.270 OA
ATOM      5  H   UNL     1      34.710  23.559 -20.846  1.00  0.00     0.163 HD
BRANCH   3   6
ATOM      6  C   UNL     1      35.317  26.011 -20.808  1.00  0.00     0.063 C 
ATOM      7  C   UNL     1      35.875  26.102 -19.584  1.00  0.00     0.030 C 
ATOM      8  N   UNL     1      35.372  27.053 -18.686  1.00  0.00    -0.301 N 
ATOM      9  C   UNL     1      34.223  26.917 -21.283  1.00  0.00     0.152 C 
ATOM     10  C   UNL     1      34.378  27.964 -19.022  1.00  0.00     0.322 C 
ATOM     11  N   UNL     1      33.871  27.883 -20.277  1.00  0.00    -0.327 N 
ATOM     12  O   UNL     1      33.931  28.822 -18.266  1.00  0.00    -0.248 OA
ATOM     13  C   UNL     1      37.045  25.257 -19.131  1.00  0.00     0.065 C 
ATOM     14  C   UNL     1      35.923  27.160 -17.335  1.00  0.00     0.155 C 
ATOM     15  H   UNL     1      33.170  28.582 -20.485  1.00  0.00     0.166 HD
BRANCH   9  16
ATOM     16  C   UNL     1      32.977  26.154 -21.724  1.00  0.00    -0.018 A 
ATOM     17  C   UNL     1      32.249  25.354 -20.821  1.00  0.00     0.009 A 
ATOM     18  C   UNL     1      32.565  26.203 -23.068  1.00  0.00     0.048 A 
ATOM     19  C   UNL     1      31.140  24.621 -21.253  1.00  0.00     0.043 A 
ATOM     20  C   UNL     1      31.467  25.459 -23.490  1.00  0.00     0.159 A 
ATOM     21  C   UNL     1      30.761  24.670 -22.590  1.00  0.00     0.158 A 
ATOM     22  F   UNL     1      31.116  25.487 -24.784  1.00  0.00    -0.204 F 
ATOM     23  F   UNL     1      29.706  23.953 -23.006  1.00  0.00    -0.204 F 
ENDBRANCH   9  16
ENDBRANCH   3   6
ENDBRANCH   1   2
BRANCH   1  24
ATOM     24  C   UNL     1      34.274  22.276 -23.299  1.00  0.00     0.083 C 
BRANCH  24  25
ATOM     25  C   UNL     1      33.969  20.782 -23.211  1.00  0.00     0.264 C 
BRANCH  25  26
ATOM     26  N   UNL     1      32.550  20.347 -23.544  1.00  0.00    -0.335 N 
ATOM     27  C   UNL     1      31.879  19.515 -22.493  1.00  0.00     0.264 C 
ATOM     28  C   UNL     1      31.661  21.425 -24.109  1.00  0.00     0.264 C 
ATOM     29  C   UNL     1      30.708  18.744 -23.100  1.00  0.00     0.089 C 
ATOM     30  C   UNL     1      30.179  21.029 -24.022  1.00  0.00     0.089 C 
ATOM     31  C   UNL     1      29.908  19.505 -24.203  1.00  0.00     0.094 C 
ATOM     32  C   UNL     1      30.473  19.166 -25.537  1.00  0.00     0.074 C 
ATOM     33  N   UNL     1      31.058  19.000 -26.524  1.00  0.00    -0.197 NA
ATOM     34  H   UNL     1      32.732  19.698 -24.331  1.00  0.00     0.348 HD
BRANCH  31  35
ATOM     35  C   UNL     1      28.405  19.116 -24.143  1.00  0.00    -0.009 A 
ATOM     36  C   UNL     1      27.787  18.453 -25.227  1.00  0.00     0.010 A 
ATOM     37  C   UNL     1      27.583  19.406 -23.011  1.00  0.00     0.060 A 
ATOM     38  C   UNL     1      26.429  18.115 -25.201  1.00  0.00     0.039 A 
ATOM     39  C   UNL     1      26.221  19.064 -23.000  1.00  0.00     0.059 A 
ATOM     40  C   UNL     1      28.084  20.067 -21.837  1.00  0.00     0.100 C 
ATOM     41  C   UNL     1      25.660  18.427 -24.093  1.00  0.00     0.124 A 
ATOM     42  N   UNL     1      28.545  20.619 -20.927  1.00  0.00    -0.192 NA
ATOM     43  F   UNL     1      24.356  18.122 -24.084  1.00  0.00    -0.207 F 
ENDBRANCH  31  35
ENDBRANCH  25  26
ENDBRANCH  24  25
ENDBRANCH   1  24
TORSDOF 7
ENDMDL
