MODEL 1
REMARK VINA RESULT:    -6.795      0.000      0.000
REMARK INTER + INTRA:         -10.045
REMARK INTER:                  -9.178
REMARK INTRA:                  -0.866
REMARK UNBOUND:                -0.866
REMARK SMILES Cc1noc2c(-c3ccccc3)nn(CCC[NH+]3CCN(c4cccc(Cl)c4)CC3)c(=O)c12
REMARK SMILES IDX 16 1 15 2 14 3 2 4 3 5 33 6 4 7 31 8 5 9 32 10 6 11 13 12
REMARK SMILES IDX 1 13 7 14 8 15 12 16 9 17 11 18 10 19 17 20 18 21 19 22
REMARK SMILES IDX 30 23 20 24 29 25 21 26 22 28 23 29 28 30 24 31 26 32 25 33
REMARK SMILES IDX 27 34
REMARK H PARENT 18 27
ROOT
ATOM      1  C   UNL     1      30.085  22.269 -20.887  1.00  0.00     0.085 C 
ENDROOT
BRANCH   1   2
ATOM      2  C   UNL     1      29.701  21.180 -21.888  1.00  0.00     0.154 C 
BRANCH   2   3
ATOM      3  N   UNL     1      28.468  20.476 -21.534  1.00  0.00    -0.228 N 
ATOM      4  C   UNL     1      25.347  18.733 -22.740  1.00  0.00     0.094 A 
ATOM      5  N   UNL     1      24.397  18.445 -21.830  1.00  0.00    -0.084 NA
ATOM      6  C   UNL     1      26.435  19.382 -22.125  1.00  0.00     0.114 A 
ATOM      7  O   UNL     1      24.852  18.959 -20.626  1.00  0.00    -0.353 OA
ATOM      8  C   UNL     1      27.700  19.887 -22.569  1.00  0.00     0.279 C 
ATOM      9  C   UNL     1      26.074  19.500 -20.813  1.00  0.00     0.200 A 
ATOM     10  O   UNL     1      28.094  19.777 -23.724  1.00  0.00    -0.267 OA
ATOM     11  C   UNL     1      26.904  20.090 -19.809  1.00  0.00     0.137 C 
ATOM     12  N   UNL     1      28.093  20.525 -20.179  1.00  0.00    -0.166 NA
ATOM     13  C   UNL     1      25.177  18.362 -24.164  1.00  0.00     0.071 C 
BRANCH  11  14
ATOM     14  C   UNL     1      26.512  20.215 -18.370  1.00  0.00     0.006 A 
ATOM     15  C   UNL     1      25.949  21.368 -17.815  1.00  0.00     0.010 A 
ATOM     16  C   UNL     1      26.708  19.095 -17.538  1.00  0.00     0.010 A 
ATOM     17  C   UNL     1      25.606  21.405 -16.459  1.00  0.00     0.001 A 
ATOM     18  C   UNL     1      26.361  19.133 -16.185  1.00  0.00     0.001 A 
ATOM     19  C   UNL     1      25.816  20.291 -15.648  1.00  0.00     0.000 A 
ENDBRANCH  11  14
ENDBRANCH   2   3
ENDBRANCH   1   2
BRANCH   1  20
ATOM     20  C   UNL     1      30.425  23.609 -21.541  1.00  0.00     0.264 C 
BRANCH  20  21
ATOM     21  N   UNL     1      31.351  23.456 -22.726  1.00  0.00    -0.332 N 
ATOM     22  C   UNL     1      31.434  24.674 -23.636  1.00  0.00     0.283 C 
ATOM     23  C   UNL     1      32.761  23.037 -22.306  1.00  0.00     0.283 C 
ATOM     24  C   UNL     1      32.024  25.896 -22.891  1.00  0.00     0.178 C 
ATOM     25  C   UNL     1      33.721  24.238 -22.101  1.00  0.00     0.178 C 
ATOM     26  N   UNL     1      32.994  25.495 -21.839  1.00  0.00    -0.360 N 
ATOM     27  H   UNL     1      30.958  22.672 -23.281  1.00  0.00     0.348 HD
BRANCH  26  28
ATOM     28  C   UNL     1      33.695  26.574 -21.267  1.00  0.00     0.038 A 
ATOM     29  C   UNL     1      33.055  27.413 -20.334  1.00  0.00     0.026 A 
ATOM     30  C   UNL     1      35.046  26.859 -21.551  1.00  0.00     0.046 A 
ATOM     31  C   UNL     1      33.715  28.491 -19.728  1.00  0.00     0.004 A 
ATOM     32  C   UNL     1      35.708  27.934 -20.942  1.00  0.00     0.043 A 
ATOM     33  C   UNL     1      35.048  28.753 -20.031  1.00  0.00     0.020 A 
ATOM     34  Cl  UNL     1      37.365  28.247 -21.333  1.00  0.00    -0.084 Cl
ENDBRANCH  26  28
ENDBRANCH  20  21
ENDBRANCH   1  20
TORSDOF 6
ENDMDL
MODEL 2
REMARK VINA RESULT:    -6.497      5.427      8.280
REMARK INTER + INTRA:          -9.642
REMARK INTER:                  -6.484
REMARK INTRA:                  -3.157
REMARK UNBOUND:                -0.866
REMARK SMILES Cc1noc2c(-c3ccccc3)nn(CCC[NH+]3CCN(c4cccc(Cl)c4)CC3)c(=O)c12
REMARK SMILES IDX 16 1 15 2 14 3 2 4 3 5 33 6 4 7 31 8 5 9 32 10 6 11 13 12
REMARK SMILES IDX 1 13 7 14 8 15 12 16 9 17 11 18 10 19 17 20 18 21 19 22
REMARK SMILES IDX 30 23 20 24 29 25 21 26 22 28 23 29 28 30 24 31 26 32 25 33
REMARK SMILES IDX 27 34
REMARK H PARENT 18 27
ROOT
ATOM      1  C   UNL     1      34.351  23.205 -17.923  1.00  0.00     0.085 C 
ENDROOT
BRANCH   1   2
ATOM      2  C   UNL     1      32.964  23.088 -18.555  1.00  0.00     0.154 C 
BRANCH   2   3
ATOM      3  N   UNL     1      32.748  24.026 -19.656  1.00  0.00    -0.228 N 
ATOM      4  C   UNL     1      31.357  24.596 -23.116  1.00  0.00     0.094 A 
ATOM      5  N   UNL     1      31.681  25.743 -23.744  1.00  0.00    -0.084 NA
ATOM      6  C   UNL     1      31.959  24.543 -21.845  1.00  0.00     0.114 A 
ATOM      7  O   UNL     1      32.545  26.412 -22.891  1.00  0.00    -0.353 OA
ATOM      8  C   UNL     1      31.956  23.612 -20.756  1.00  0.00     0.279 C 
ATOM      9  C   UNL     1      32.688  25.695 -21.757  1.00  0.00     0.200 A 
ATOM     10  O   UNL     1      31.292  22.582 -20.762  1.00  0.00    -0.267 OA
ATOM     11  C   UNL     1      33.456  26.066 -20.610  1.00  0.00     0.137 C 
ATOM     12  N   UNL     1      33.437  25.250 -19.574  1.00  0.00    -0.166 NA
ATOM     13  C   UNL     1      30.468  23.600 -23.760  1.00  0.00     0.071 C 
BRANCH  11  14
ATOM     14  C   UNL     1      34.251  27.330 -20.510  1.00  0.00     0.006 A 
ATOM     15  C   UNL     1      35.500  27.512 -21.111  1.00  0.00     0.010 A 
ATOM     16  C   UNL     1      33.692  28.400 -19.783  1.00  0.00     0.010 A 
ATOM     17  C   UNL     1      36.180  28.728 -20.974  1.00  0.00     0.001 A 
ATOM     18  C   UNL     1      34.371  29.614 -19.651  1.00  0.00     0.001 A 
ATOM     19  C   UNL     1      35.617  29.773 -20.242  1.00  0.00     0.000 A 
ENDBRANCH  11  14
ENDBRANCH   2   3
ENDBRANCH   1   2
BRANCH   1  20
ATOM     20  C   UNL     1      35.230  21.973 -18.143  1.00  0.00     0.264 C 
BRANCH  20  21
ATOM     21  N   UNL     1      36.659  22.335 -18.476  1.00  0.00    -0.332 N 
ATOM     22  C   UNL     1      37.300  21.483 -19.562  1.00  0.00     0.283 C 
ATOM     23  C   UNL     1      36.811  23.815 -18.834  1.00  0.00     0.283 C 
ATOM     24  C   UNL     1      36.575  21.657 -20.918  1.00  0.00     0.178 C 
ATOM     25  C   UNL     1      36.711  24.089 -20.357  1.00  0.00     0.178 C 
ATOM     26  N   UNL     1      35.994  23.016 -21.072  1.00  0.00    -0.360 N 
ATOM     27  H   UNL     1      37.192  22.183 -17.598  1.00  0.00     0.348 HD
BRANCH  26  28
ATOM     28  C   UNL     1      35.491  23.281 -22.360  1.00  0.00     0.038 A 
ATOM     29  C   UNL     1      35.847  24.471 -23.024  1.00  0.00     0.026 A 
ATOM     30  C   UNL     1      34.654  22.392 -23.064  1.00  0.00     0.046 A 
ATOM     31  C   UNL     1      35.383  24.773 -24.311  1.00  0.00     0.004 A 
ATOM     32  C   UNL     1      34.192  22.690 -24.353  1.00  0.00     0.043 A 
ATOM     33  C   UNL     1      34.552  23.878 -24.981  1.00  0.00     0.020 A 
ATOM     34  Cl  UNL     1      33.158  21.567 -25.170  1.00  0.00    -0.084 Cl
ENDBRANCH  26  28
ENDBRANCH  20  21
ENDBRANCH   1  20
TORSDOF 6
ENDMDL
MODEL 3
REMARK VINA RESULT:    -6.467      1.591      2.188
REMARK INTER + INTRA:          -9.601
REMARK INTER:                  -8.444
REMARK INTRA:                  -1.157
REMARK UNBOUND:                -0.866
REMARK SMILES Cc1noc2c(-c3ccccc3)nn(CCC[NH+]3CCN(c4cccc(Cl)c4)CC3)c(=O)c12
REMARK SMILES IDX 16 1 15 2 14 3 2 4 3 5 33 6 4 7 31 8 5 9 32 10 6 11 13 12
REMARK SMILES IDX 1 13 7 14 8 15 12 16 9 17 11 18 10 19 17 20 18 21 19 22
REMARK SMILES IDX 30 23 20 24 29 25 21 26 22 28 23 29 28 30 24 31 26 32 25 33
REMARK SMILES IDX 27 34
REMARK H PARENT 18 27
ROOT
ATOM      1  C   UNL     1      30.526  21.739 -24.118  1.00  0.00     0.085 C 
ENDROOT
BRANCH   1   2
ATOM      2  C   UNL     1      30.537  20.358 -23.464  1.00  0.00     0.154 C 
BRANCH   2   3
ATOM      3  N   UNL     1      29.302  20.048 -22.744  1.00  0.00    -0.228 N 
ATOM      4  C   UNL     1      25.704  18.932 -22.943  1.00  0.00     0.094 A 
ATOM      5  N   UNL     1      24.947  19.048 -21.835  1.00  0.00    -0.084 NA
ATOM      6  C   UNL     1      27.010  19.394 -22.697  1.00  0.00     0.114 A 
ATOM      7  O   UNL     1      25.758  19.640 -20.880  1.00  0.00    -0.353 OA
ATOM      8  C   UNL     1      28.216  19.491 -23.465  1.00  0.00     0.279 C 
ATOM      9  C   UNL     1      26.989  19.826 -21.401  1.00  0.00     0.200 A 
ATOM     10  O   UNL     1      28.306  19.087 -24.618  1.00  0.00    -0.267 OA
ATOM     11  C   UNL     1      28.126  20.363 -20.722  1.00  0.00     0.137 C 
ATOM     12  N   UNL     1      29.262  20.425 -21.389  1.00  0.00    -0.166 NA
ATOM     13  C   UNL     1      25.143  18.368 -24.194  1.00  0.00     0.071 C 
BRANCH  11  14
ATOM     14  C   UNL     1      28.105  20.832 -19.300  1.00  0.00     0.006 A 
ATOM     15  C   UNL     1      26.987  21.404 -18.687  1.00  0.00     0.010 A 
ATOM     16  C   UNL     1      29.279  20.665 -18.538  1.00  0.00     0.010 A 
ATOM     17  C   UNL     1      27.046  21.814 -17.350  1.00  0.00     0.001 A 
ATOM     18  C   UNL     1      29.334  21.072 -17.203  1.00  0.00     0.001 A 
ATOM     19  C   UNL     1      28.219  21.651 -16.614  1.00  0.00     0.000 A 
ENDBRANCH  11  14
ENDBRANCH   2   3
ENDBRANCH   1   2
BRANCH   1  20
ATOM     20  C   UNL     1      31.282  22.801 -23.320  1.00  0.00     0.264 C 
BRANCH  20  21
ATOM     21  N   UNL     1      30.497  23.294 -22.125  1.00  0.00    -0.332 N 
ATOM     22  C   UNL     1      31.191  23.110 -20.783  1.00  0.00     0.283 C 
ATOM     23  C   UNL     1      30.065  24.753 -22.281  1.00  0.00     0.283 C 
ATOM     24  C   UNL     1      32.496  23.938 -20.705  1.00  0.00     0.178 C 
ATOM     25  C   UNL     1      31.065  25.757 -21.650  1.00  0.00     0.178 C 
ATOM     26  N   UNL     1      32.417  25.185 -21.510  1.00  0.00    -0.360 N 
ATOM     27  H   UNL     1      29.630  22.724 -22.114  1.00  0.00     0.348 HD
BRANCH  26  28
ATOM     28  C   UNL     1      33.504  26.059 -21.319  1.00  0.00     0.038 A 
ATOM     29  C   UNL     1      34.759  25.758 -21.885  1.00  0.00     0.026 A 
ATOM     30  C   UNL     1      33.409  27.270 -20.602  1.00  0.00     0.046 A 
ATOM     31  C   UNL     1      35.866  26.603 -21.733  1.00  0.00     0.004 A 
ATOM     32  C   UNL     1      34.515  28.118 -20.453  1.00  0.00     0.043 A 
ATOM     33  C   UNL     1      35.745  27.790 -21.015  1.00  0.00     0.020 A 
ATOM     34  Cl  UNL     1      34.347  29.589 -19.556  1.00  0.00    -0.084 Cl
ENDBRANCH  26  28
ENDBRANCH  20  21
ENDBRANCH   1  20
TORSDOF 6
ENDMDL
MODEL 4
REMARK VINA RESULT:    -6.437      3.256      6.471
REMARK INTER + INTRA:          -9.562
REMARK INTER:                  -6.527
REMARK INTRA:                  -3.034
REMARK UNBOUND:                -0.866
REMARK SMILES Cc1noc2c(-c3ccccc3)nn(CCC[NH+]3CCN(c4cccc(Cl)c4)CC3)c(=O)c12
REMARK SMILES IDX 16 1 15 2 14 3 2 4 3 5 33 6 4 7 31 8 5 9 32 10 6 11 13 12
REMARK SMILES IDX 1 13 7 14 8 15 12 16 9 17 11 18 10 19 17 20 18 21 19 22
REMARK SMILES IDX 30 23 20 24 29 25 21 26 22 28 23 29 28 30 24 31 26 32 25 33
REMARK SMILES IDX 27 34
REMARK H PARENT 18 27
ROOT
ATOM      1  C   UNL     1      27.848  19.294 -21.689  1.00  0.00     0.085 C 
ENDROOT
BRANCH   1   2
ATOM      2  C   UNL     1      27.655  19.919 -23.070  1.00  0.00     0.154 C 
BRANCH   2   3
ATOM      3  N   UNL     1      28.907  20.351 -23.691  1.00  0.00    -0.228 N 
ATOM      4  C   UNL     1      32.074  19.354 -25.483  1.00  0.00     0.094 A 
ATOM      5  N   UNL     1      33.033  20.288 -25.631  1.00  0.00    -0.084 NA
ATOM      6  C   UNL     1      30.969  19.889 -24.794  1.00  0.00     0.114 A 
ATOM      7  O   UNL     1      32.565  21.421 -24.985  1.00  0.00    -0.353 OA
ATOM      8  C   UNL     1      29.690  19.392 -24.382  1.00  0.00     0.279 C 
ATOM      9  C   UNL     1      31.328  21.175 -24.506  1.00  0.00     0.200 A 
ATOM     10  O   UNL     1      29.298  18.261 -24.644  1.00  0.00    -0.267 OA
ATOM     11  C   UNL     1      30.484  22.102 -23.820  1.00  0.00     0.137 C 
ATOM     12  N   UNL     1      29.283  21.688 -23.466  1.00  0.00    -0.166 NA
ATOM     13  C   UNL     1      32.253  17.985 -26.022  1.00  0.00     0.071 C 
BRANCH  11  14
ATOM     14  C   UNL     1      30.874  23.514 -23.507  1.00  0.00     0.006 A 
ATOM     15  C   UNL     1      31.953  24.172 -24.105  1.00  0.00     0.010 A 
ATOM     16  C   UNL     1      30.093  24.217 -22.569  1.00  0.00     0.010 A 
ATOM     17  C   UNL     1      32.251  25.495 -23.761  1.00  0.00     0.001 A 
ATOM     18  C   UNL     1      30.391  25.539 -22.230  1.00  0.00     0.001 A 
ATOM     19  C   UNL     1      31.473  26.173 -22.823  1.00  0.00     0.000 A 
ENDBRANCH  11  14
ENDBRANCH   2   3
ENDBRANCH   1   2
BRANCH   1  20
ATOM     20  C   UNL     1      28.285  20.296 -20.619  1.00  0.00     0.264 C 
BRANCH  20  21
ATOM     21  N   UNL     1      29.077  19.646 -19.508  1.00  0.00    -0.332 N 
ATOM     22  C   UNL     1      30.316  18.888 -19.963  1.00  0.00     0.283 C 
ATOM     23  C   UNL     1      29.464  20.645 -18.415  1.00  0.00     0.283 C 
ATOM     24  C   UNL     1      31.350  19.836 -20.617  1.00  0.00     0.178 C 
ATOM     25  C   UNL     1      30.865  21.274 -18.631  1.00  0.00     0.178 C 
ATOM     26  N   UNL     1      31.299  21.204 -20.039  1.00  0.00    -0.360 N 
ATOM     27  H   UNL     1      28.429  18.962 -19.073  1.00  0.00     0.348 HD
BRANCH  26  28
ATOM     28  C   UNL     1      32.343  22.045 -20.467  1.00  0.00     0.038 A 
ATOM     29  C   UNL     1      33.287  21.576 -21.402  1.00  0.00     0.026 A 
ATOM     30  C   UNL     1      32.494  23.378 -20.033  1.00  0.00     0.046 A 
ATOM     31  C   UNL     1      34.337  22.380 -21.867  1.00  0.00     0.004 A 
ATOM     32  C   UNL     1      33.539  24.184 -20.501  1.00  0.00     0.043 A 
ATOM     33  C   UNL     1      34.464  23.692 -21.417  1.00  0.00     0.020 A 
ATOM     34  Cl  UNL     1      33.684  25.812 -19.928  1.00  0.00    -0.084 Cl
ENDBRANCH  26  28
ENDBRANCH  20  21
ENDBRANCH   1  20
TORSDOF 6
ENDMDL
MODEL 5
REMARK VINA RESULT:    -6.395      3.331      9.209
REMARK INTER + INTRA:          -9.505
REMARK INTER:                  -8.373
REMARK INTRA:                  -1.132
REMARK UNBOUND:                -0.866
REMARK SMILES Cc1noc2c(-c3ccccc3)nn(CCC[NH+]3CCN(c4cccc(Cl)c4)CC3)c(=O)c12
REMARK SMILES IDX 16 1 15 2 14 3 2 4 3 5 33 6 4 7 31 8 5 9 32 10 6 11 13 12
REMARK SMILES IDX 1 13 7 14 8 15 12 16 9 17 11 18 10 19 17 20 18 21 19 22
REMARK SMILES IDX 30 23 20 24 29 25 21 26 22 28 23 29 28 30 24 31 26 32 25 33
REMARK SMILES IDX 27 34
REMARK H PARENT 18 27
ROOT
ATOM      1  C   UNL     1      31.417  21.821 -17.988  1.00  0.00     0.085 C 
ENDROOT
BRANCH   1   2
ATOM      2  C   UNL     1      32.567  21.987 -18.981  1.00  0.00     0.154 C 
BRANCH   2   3
ATOM      3  N   UNL     1      32.307  23.000 -20.004  1.00  0.00    -0.228 N 
ATOM      4  C   UNL     1      30.844  23.794 -23.389  1.00  0.00     0.094 A 
ATOM      5  N   UNL     1      31.127  24.994 -23.931  1.00  0.00    -0.084 NA
ATOM      6  C   UNL     1      31.469  23.661 -22.135  1.00  0.00     0.114 A 
ATOM      7  O   UNL     1      31.986  25.621 -23.042  1.00  0.00    -0.353 OA
ATOM      8  C   UNL     1      31.508  22.650 -21.121  1.00  0.00     0.279 C 
ATOM      9  C   UNL     1      32.167  24.823 -21.969  1.00  0.00     0.200 A 
ATOM     10  O   UNL     1      30.873  21.605 -21.197  1.00  0.00    -0.267 OA
ATOM     11  C   UNL     1      32.944  25.126 -20.808  1.00  0.00     0.137 C 
ATOM     12  N   UNL     1      32.965  24.233 -19.837  1.00  0.00    -0.166 NA
ATOM     13  C   UNL     1      29.972  22.825 -24.095  1.00  0.00     0.071 C 
BRANCH  11  14
ATOM     14  C   UNL     1      33.706  26.401 -20.623  1.00  0.00     0.006 A 
ATOM     15  C   UNL     1      33.186  27.533 -19.988  1.00  0.00     0.010 A 
ATOM     16  C   UNL     1      35.030  26.448 -21.103  1.00  0.00     0.010 A 
ATOM     17  C   UNL     1      33.966  28.687 -19.851  1.00  0.00     0.001 A 
ATOM     18  C   UNL     1      35.807  27.601 -20.962  1.00  0.00     0.001 A 
ATOM     19  C   UNL     1      35.270  28.720 -20.342  1.00  0.00     0.000 A 
ENDBRANCH  11  14
ENDBRANCH   2   3
ENDBRANCH   1   2
BRANCH   1  20
ATOM     20  C   UNL     1      30.863  20.398 -17.925  1.00  0.00     0.264 C 
BRANCH  20  21
ATOM     21  N   UNL     1      29.725  20.264 -16.939  1.00  0.00    -0.332 N 
ATOM     22  C   UNL     1      28.677  21.365 -17.016  1.00  0.00     0.283 C 
ATOM     23  C   UNL     1      29.039  18.899 -17.032  1.00  0.00     0.283 C 
ATOM     24  C   UNL     1      27.952  21.359 -18.384  1.00  0.00     0.178 C 
ATOM     25  C   UNL     1      27.811  18.896 -17.980  1.00  0.00     0.178 C 
ATOM     26  N   UNL     1      27.862  19.994 -18.964  1.00  0.00    -0.360 N 
ATOM     27  H   UNL     1      30.168  20.313 -16.001  1.00  0.00     0.348 HD
BRANCH  26  28
ATOM     28  C   UNL     1      27.050  19.912 -20.111  1.00  0.00     0.038 A 
ATOM     29  C   UNL     1      25.672  20.194 -20.019  1.00  0.00     0.026 A 
ATOM     30  C   UNL     1      27.544  19.587 -21.390  1.00  0.00     0.046 A 
ATOM     31  C   UNL     1      24.826  20.138 -21.135  1.00  0.00     0.004 A 
ATOM     32  C   UNL     1      26.700  19.535 -22.507  1.00  0.00     0.043 A 
ATOM     33  C   UNL     1      25.340  19.809 -22.386  1.00  0.00     0.020 A 
ATOM     34  Cl  UNL     1      27.356  19.121 -24.055  1.00  0.00    -0.084 Cl
ENDBRANCH  26  28
ENDBRANCH  20  21
ENDBRANCH   1  20
TORSDOF 6
ENDMDL
MODEL 6
REMARK VINA RESULT:    -6.283      5.756      9.544
REMARK INTER + INTRA:          -9.354
REMARK INTER:                  -6.355
REMARK INTRA:                  -2.999
REMARK UNBOUND:                -0.866
REMARK SMILES Cc1noc2c(-c3ccccc3)nn(CCC[NH+]3CCN(c4cccc(Cl)c4)CC3)c(=O)c12
REMARK SMILES IDX 16 1 15 2 14 3 2 4 3 5 33 6 4 7 31 8 5 9 32 10 6 11 13 12
REMARK SMILES IDX 1 13 7 14 8 15 12 16 9 17 11 18 10 19 17 20 18 21 19 22
REMARK SMILES IDX 30 23 20 24 29 25 21 26 22 28 23 29 28 30 24 31 26 32 25 33
REMARK SMILES IDX 27 34
REMARK H PARENT 18 27
ROOT
ATOM      1  C   UNL     1      37.583  23.646 -20.426  1.00  0.00     0.085 C 
ENDROOT
BRANCH   1   2
ATOM      2  C   UNL     1      36.876  24.132 -19.161  1.00  0.00     0.154 C 
BRANCH   2   3
ATOM      3  N   UNL     1      36.032  25.305 -19.384  1.00  0.00    -0.228 N 
ATOM      4  C   UNL     1      34.768  28.605 -18.063  1.00  0.00     0.094 A 
ATOM      5  N   UNL     1      33.740  29.189 -18.709  1.00  0.00    -0.084 NA
ATOM      6  C   UNL     1      35.109  27.388 -18.681  1.00  0.00     0.114 A 
ATOM      7  O   UNL     1      33.380  28.314 -19.721  1.00  0.00    -0.353 OA
ATOM      8  C   UNL     1      36.101  26.378 -18.459  1.00  0.00     0.279 C 
ATOM      9  C   UNL     1      34.214  27.254 -19.704  1.00  0.00     0.200 A 
ATOM     10  O   UNL     1      36.953  26.461 -17.582  1.00  0.00    -0.267 OA
ATOM     11  C   UNL     1      34.207  26.153 -20.617  1.00  0.00     0.137 C 
ATOM     12  N   UNL     1      35.135  25.229 -20.465  1.00  0.00    -0.166 NA
ATOM     13  C   UNL     1      35.390  29.249 -16.882  1.00  0.00     0.071 C 
BRANCH  11  14
ATOM     14  C   UNL     1      33.230  26.008 -21.742  1.00  0.00     0.006 A 
ATOM     15  C   UNL     1      31.843  26.065 -21.578  1.00  0.00     0.010 A 
ATOM     16  C   UNL     1      33.747  25.821 -23.039  1.00  0.00     0.010 A 
ATOM     17  C   UNL     1      30.995  25.923 -22.682  1.00  0.00     0.001 A 
ATOM     18  C   UNL     1      32.898  25.683 -24.140  1.00  0.00     0.001 A 
ATOM     19  C   UNL     1      31.523  25.729 -23.958  1.00  0.00     0.000 A 
ENDBRANCH  11  14
ENDBRANCH   2   3
ENDBRANCH   1   2
BRANCH   1  20
ATOM     20  C   UNL     1      37.527  22.129 -20.614  1.00  0.00     0.264 C 
BRANCH  20  21
ATOM     21  N   UNL     1      37.437  21.731 -22.069  1.00  0.00    -0.332 N 
ATOM     22  C   UNL     1      36.645  20.459 -22.337  1.00  0.00     0.283 C 
ATOM     23  C   UNL     1      36.896  22.863 -22.945  1.00  0.00     0.283 C 
ATOM     24  C   UNL     1      35.160  20.622 -21.930  1.00  0.00     0.178 C 
ATOM     25  C   UNL     1      35.360  22.796 -23.149  1.00  0.00     0.178 C 
ATOM     26  N   UNL     1      34.688  22.023 -22.088  1.00  0.00    -0.360 N 
ATOM     27  H   UNL     1      38.416  21.562 -22.368  1.00  0.00     0.348 HD
BRANCH  26  28
ATOM     28  C   UNL     1      33.300  22.181 -21.911  1.00  0.00     0.038 A 
ATOM     29  C   UNL     1      32.774  22.403 -20.623  1.00  0.00     0.026 A 
ATOM     30  C   UNL     1      32.376  22.164 -22.976  1.00  0.00     0.046 A 
ATOM     31  C   UNL     1      31.402  22.579 -20.399  1.00  0.00     0.004 A 
ATOM     32  C   UNL     1      31.004  22.345 -22.754  1.00  0.00     0.043 A 
ATOM     33  C   UNL     1      30.511  22.552 -21.469  1.00  0.00     0.020 A 
ATOM     34  Cl  UNL     1      29.910  22.306 -24.095  1.00  0.00    -0.084 Cl
ENDBRANCH  26  28
ENDBRANCH  20  21
ENDBRANCH   1  20
TORSDOF 6
ENDMDL
MODEL 7
REMARK VINA RESULT:    -6.140      2.776      5.148
REMARK INTER + INTRA:          -9.160
REMARK INTER:                  -6.635
REMARK INTRA:                  -2.524
REMARK UNBOUND:                -0.866
REMARK SMILES Cc1noc2c(-c3ccccc3)nn(CCC[NH+]3CCN(c4cccc(Cl)c4)CC3)c(=O)c12
REMARK SMILES IDX 16 1 15 2 14 3 2 4 3 5 33 6 4 7 31 8 5 9 32 10 6 11 13 12
REMARK SMILES IDX 1 13 7 14 8 15 12 16 9 17 11 18 10 19 17 20 18 21 19 22
REMARK SMILES IDX 30 23 20 24 29 25 21 26 22 28 23 29 28 30 24 31 26 32 25 33
REMARK SMILES IDX 27 34
REMARK H PARENT 18 27
ROOT
ATOM      1  C   UNL     1      30.988  21.401 -17.606  1.00  0.00     0.085 C 
ENDROOT
BRANCH   1   2
ATOM      2  C   UNL     1      29.698  20.582 -17.606  1.00  0.00     0.154 C 
BRANCH   2   3
ATOM      3  N   UNL     1      29.002  20.596 -18.893  1.00  0.00    -0.228 N 
ATOM      4  C   UNL     1      25.901  19.682 -20.837  1.00  0.00     0.094 A 
ATOM      5  N   UNL     1      25.946  19.788 -22.179  1.00  0.00    -0.084 NA
ATOM      6  C   UNL     1      27.136  20.056 -20.273  1.00  0.00     0.114 A 
ATOM      7  O   UNL     1      27.239  20.183 -22.487  1.00  0.00    -0.353 OA
ATOM      8  C   UNL     1      27.654  20.163 -18.941  1.00  0.00     0.279 C 
ATOM      9  C   UNL     1      27.931  20.355 -21.342  1.00  0.00     0.200 A 
ATOM     10  O   UNL     1      26.977  19.945 -17.943  1.00  0.00    -0.267 OA
ATOM     11  C   UNL     1      29.283  20.806 -21.226  1.00  0.00     0.137 C 
ATOM     12  N   UNL     1      29.775  20.957 -20.012  1.00  0.00    -0.166 NA
ATOM     13  C   UNL     1      24.667  19.237 -20.148  1.00  0.00     0.071 C 
BRANCH  11  14
ATOM     14  C   UNL     1      30.154  21.139 -22.398  1.00  0.00     0.006 A 
ATOM     15  C   UNL     1      29.791  22.035 -23.407  1.00  0.00     0.010 A 
ATOM     16  C   UNL     1      31.420  20.523 -22.468  1.00  0.00     0.010 A 
ATOM     17  C   UNL     1      30.664  22.296 -24.469  1.00  0.00     0.001 A 
ATOM     18  C   UNL     1      32.292  20.788 -23.527  1.00  0.00     0.001 A 
ATOM     19  C   UNL     1      31.909  21.670 -24.528  1.00  0.00     0.000 A 
ENDBRANCH  11  14
ENDBRANCH   2   3
ENDBRANCH   1   2
BRANCH   1  20
ATOM     20  C   UNL     1      32.201  20.636 -18.136  1.00  0.00     0.264 C 
BRANCH  20  21
ATOM     21  N   UNL     1      33.499  21.371 -17.896  1.00  0.00    -0.332 N 
ATOM     22  C   UNL     1      34.493  21.311 -19.047  1.00  0.00     0.283 C 
ATOM     23  C   UNL     1      33.270  22.831 -17.496  1.00  0.00     0.283 C 
ATOM     24  C   UNL     1      33.932  22.003 -20.313  1.00  0.00     0.178 C 
ATOM     25  C   UNL     1      33.297  23.806 -18.702  1.00  0.00     0.178 C 
ATOM     26  N   UNL     1      33.015  23.123 -19.979  1.00  0.00    -0.360 N 
ATOM     27  H   UNL     1      33.933  20.901 -17.078  1.00  0.00     0.348 HD
BRANCH  26  28
ATOM     28  C   UNL     1      32.632  23.899 -21.090  1.00  0.00     0.038 A 
ATOM     29  C   UNL     1      31.362  24.508 -21.118  1.00  0.00     0.026 A 
ATOM     30  C   UNL     1      33.472  24.140 -22.195  1.00  0.00     0.046 A 
ATOM     31  C   UNL     1      30.940  25.300 -22.195  1.00  0.00     0.004 A 
ATOM     32  C   UNL     1      33.054  24.934 -23.271  1.00  0.00     0.043 A 
ATOM     33  C   UNL     1      31.790  25.516 -23.277  1.00  0.00     0.020 A 
ATOM     34  Cl  UNL     1      34.122  25.191 -24.609  1.00  0.00    -0.084 Cl
ENDBRANCH  26  28
ENDBRANCH  20  21
ENDBRANCH   1  20
TORSDOF 6
ENDMDL
MODEL 8
REMARK VINA RESULT:    -6.116      4.670     10.679
REMARK INTER + INTRA:          -9.128
REMARK INTER:                  -7.779
REMARK INTRA:                  -1.349
REMARK UNBOUND:                -0.866
REMARK SMILES Cc1noc2c(-c3ccccc3)nn(CCC[NH+]3CCN(c4cccc(Cl)c4)CC3)c(=O)c12
REMARK SMILES IDX 16 1 15 2 14 3 2 4 3 5 33 6 4 7 31 8 5 9 32 10 6 11 13 12
REMARK SMILES IDX 1 13 7 14 8 15 12 16 9 17 11 18 10 19 17 20 18 21 19 22
REMARK SMILES IDX 30 23 20 24 29 25 21 26 22 28 23 29 28 30 24 31 26 32 25 33
REMARK SMILES IDX 27 34
REMARK H PARENT 18 27
ROOT
ATOM      1  C   UNL     1      30.382  24.930 -21.925  1.00  0.00     0.085 C 
ENDROOT
BRANCH   1   2
ATOM      2  C   UNL     1      31.185  26.020 -22.634  1.00  0.00     0.154 C 
BRANCH   2   3
ATOM      3  N   UNL     1      32.622  25.750 -22.673  1.00  0.00    -0.228 N 
ATOM      4  C   UNL     1      36.057  26.640 -21.392  1.00  0.00     0.094 A 
ATOM      5  N   UNL     1      37.121  26.111 -22.027  1.00  0.00    -0.084 NA
ATOM      6  C   UNL     1      34.861  26.210 -21.998  1.00  0.00     0.114 A 
ATOM      7  O   UNL     1      36.608  25.376 -23.084  1.00  0.00    -0.353 OA
ATOM      8  C   UNL     1      33.465  26.420 -21.752  1.00  0.00     0.279 C 
ATOM      9  C   UNL     1      35.261  25.430 -23.045  1.00  0.00     0.200 A 
ATOM     10  O   UNL     1      33.046  27.078 -20.806  1.00  0.00    -0.267 OA
ATOM     11  C   UNL     1      34.358  24.764 -23.931  1.00  0.00     0.137 C 
ATOM     12  N   UNL     1      33.067  24.902 -23.704  1.00  0.00    -0.166 NA
ATOM     13  C   UNL     1      36.233  27.528 -20.219  1.00  0.00     0.071 C 
BRANCH  11  14
ATOM     14  C   UNL     1      34.795  23.905 -25.077  1.00  0.00     0.006 A 
ATOM     15  C   UNL     1      35.527  24.380 -26.169  1.00  0.00     0.010 A 
ATOM     16  C   UNL     1      34.461  22.537 -25.034  1.00  0.00     0.010 A 
ATOM     17  C   UNL     1      35.901  23.510 -27.200  1.00  0.00     0.001 A 
ATOM     18  C   UNL     1      34.839  21.670 -26.063  1.00  0.00     0.001 A 
ATOM     19  C   UNL     1      35.553  22.161 -27.147  1.00  0.00     0.000 A 
ENDBRANCH  11  14
ENDBRANCH   2   3
ENDBRANCH   1   2
BRANCH   1  20
ATOM     20  C   UNL     1      29.975  23.776 -22.840  1.00  0.00     0.264 C 
BRANCH  20  21
ATOM     21  N   UNL     1      30.958  22.629 -22.798  1.00  0.00    -0.332 N 
ATOM     22  C   UNL     1      30.808  21.699 -21.602  1.00  0.00     0.283 C 
ATOM     23  C   UNL     1      30.942  21.806 -24.088  1.00  0.00     0.283 C 
ATOM     24  C   UNL     1      29.437  20.979 -21.616  1.00  0.00     0.178 C 
ATOM     25  C   UNL     1      29.987  20.586 -24.023  1.00  0.00     0.178 C 
ATOM     26  N   UNL     1      28.940  20.751 -22.997  1.00  0.00    -0.360 N 
ATOM     27  H   UNL     1      31.895  23.073 -22.738  1.00  0.00     0.348 HD
BRANCH  26  28
ATOM     28  C   UNL     1      27.794  19.935 -23.065  1.00  0.00     0.038 A 
ATOM     29  C   UNL     1      27.592  19.095 -24.178  1.00  0.00     0.026 A 
ATOM     30  C   UNL     1      26.821  19.878 -22.046  1.00  0.00     0.046 A 
ATOM     31  C   UNL     1      26.474  18.256 -24.284  1.00  0.00     0.004 A 
ATOM     32  C   UNL     1      25.706  19.037 -22.149  1.00  0.00     0.043 A 
ATOM     33  C   UNL     1      25.526  18.224 -23.264  1.00  0.00     0.020 A 
ATOM     34  Cl  UNL     1      24.535  19.012 -20.873  1.00  0.00    -0.084 Cl
ENDBRANCH  26  28
ENDBRANCH  20  21
ENDBRANCH   1  20
TORSDOF 6
ENDMDL
MODEL 9
REMARK VINA RESULT:    -6.047      4.356      9.655
REMARK INTER + INTRA:          -9.035
REMARK INTER:                  -7.795
REMARK INTRA:                  -1.240
REMARK UNBOUND:                -0.866
REMARK SMILES Cc1noc2c(-c3ccccc3)nn(CCC[NH+]3CCN(c4cccc(Cl)c4)CC3)c(=O)c12
REMARK SMILES IDX 16 1 15 2 14 3 2 4 3 5 33 6 4 7 31 8 5 9 32 10 6 11 13 12
REMARK SMILES IDX 1 13 7 14 8 15 12 16 9 17 11 18 10 19 17 20 18 21 19 22
REMARK SMILES IDX 30 23 20 24 29 25 21 26 22 28 23 29 28 30 24 31 26 32 25 33
REMARK SMILES IDX 27 34
REMARK H PARENT 18 27
ROOT
ATOM      1  C   UNL     1      34.198  23.017 -17.370  1.00  0.00     0.085 C 
ENDROOT
BRANCH   1   2
ATOM      2  C   UNL     1      34.332  22.834 -18.881  1.00  0.00     0.154 C 
BRANCH   2   3
ATOM      3  N   UNL     1      33.638  23.864 -19.654  1.00  0.00    -0.228 N 
ATOM      4  C   UNL     1      30.964  24.669 -22.191  1.00  0.00     0.094 A 
ATOM      5  N   UNL     1      30.937  25.915 -22.702  1.00  0.00    -0.084 NA
ATOM      6  C   UNL     1      32.019  24.539 -21.268  1.00  0.00     0.114 A 
ATOM      7  O   UNL     1      32.018  26.579 -22.145  1.00  0.00    -0.353 OA
ATOM      8  C   UNL     1      32.507  23.491 -20.423  1.00  0.00     0.279 C 
ATOM      9  C   UNL     1      32.644  25.754 -21.280  1.00  0.00     0.200 A 
ATOM     10  O   UNL     1      31.966  22.394 -20.342  1.00  0.00    -0.267 OA
ATOM     11  C   UNL     1      33.774  26.076 -20.465  1.00  0.00     0.137 C 
ATOM     12  N   UNL     1      34.219  25.145 -19.644  1.00  0.00    -0.166 NA
ATOM     13  C   UNL     1      29.964  23.655 -22.600  1.00  0.00     0.071 C 
BRANCH  11  14
ATOM     14  C   UNL     1      34.456  27.409 -20.474  1.00  0.00     0.006 A 
ATOM     15  C   UNL     1      35.662  27.660 -21.134  1.00  0.00     0.010 A 
ATOM     16  C   UNL     1      33.830  28.469 -19.789  1.00  0.00     0.010 A 
ATOM     17  C   UNL     1      36.235  28.936 -21.097  1.00  0.00     0.001 A 
ATOM     18  C   UNL     1      34.402  29.744 -19.757  1.00  0.00     0.001 A 
ATOM     19  C   UNL     1      35.607  29.972 -20.407  1.00  0.00     0.000 A 
ENDBRANCH  11  14
ENDBRANCH   2   3
ENDBRANCH   1   2
BRANCH   1  20
ATOM     20  C   UNL     1      32.815  22.655 -16.829  1.00  0.00     0.264 C 
BRANCH  20  21
ATOM     21  N   UNL     1      32.753  21.240 -16.301  1.00  0.00    -0.332 N 
ATOM     22  C   UNL     1      31.933  21.066 -15.031  1.00  0.00     0.283 C 
ATOM     23  C   UNL     1      32.269  20.249 -17.361  1.00  0.00     0.283 C 
ATOM     24  C   UNL     1      30.443  21.411 -15.269  1.00  0.00     0.178 C 
ATOM     25  C   UNL     1      30.738  20.006 -17.316  1.00  0.00     0.178 C 
ATOM     26  N   UNL     1      30.015  21.113 -16.661  1.00  0.00    -0.360 N 
ATOM     27  H   UNL     1      33.736  20.987 -16.080  1.00  0.00     0.348 HD
BRANCH  26  28
ATOM     28  C   UNL     1      28.628  21.232 -16.871  1.00  0.00     0.038 A 
ATOM     29  C   UNL     1      28.123  21.365 -18.179  1.00  0.00     0.026 A 
ATOM     30  C   UNL     1      27.680  21.196 -15.829  1.00  0.00     0.046 A 
ATOM     31  C   UNL     1      26.750  21.474 -18.439  1.00  0.00     0.004 A 
ATOM     32  C   UNL     1      26.307  21.300 -16.087  1.00  0.00     0.043 A 
ATOM     33  C   UNL     1      25.836  21.440 -17.389  1.00  0.00     0.020 A 
ATOM     34  Cl  UNL     1      25.184  21.259 -14.770  1.00  0.00    -0.084 Cl
ENDBRANCH  26  28
ENDBRANCH  20  21
ENDBRANCH   1  20
TORSDOF 6
ENDMDL
