MODEL 1
REMARK VINA RESULT:    -6.725      0.000      0.000
REMARK INTER + INTRA:         -11.582
REMARK INTER:                  -9.870
REMARK INTRA:                  -1.712
REMARK UNBOUND:                -1.712
REMARK SMILES N#Cc1cc(F)ccc1C1CC[NH+](CCCNC(=O)C2=C(C(F)(F)F)NC(=O)NC2c2ccc(F)c(F)c2)CC1
REMARK SMILES IDX 15 1 14 2 13 3 10 4 11 5 40 6 12 7 39 8 9 10 1 11 2 12 3 13
REMARK SMILES IDX 4 14 5 15 8 16 7 17 6 18 16 19 17 20 18 21 19 22 20 24 21 25
REMARK SMILES IDX 30 26 26 27 29 28 27 29 28 30 22 33 23 34 24 35 25 36 31 37
REMARK SMILES IDX 32 38 38 39 33 40 36 41 34 42 37 43 35 44
REMARK H PARENT 13 9 17 23 26 31 29 32
ROOT
ATOM      1  C   UNL     1      32.616  21.931 -17.562  1.00  0.00     0.083 C 
ENDROOT
BRANCH   1   2
ATOM      2  C   UNL     1      32.800  20.846 -18.640  1.00  0.00     0.264 C 
BRANCH   2   3
ATOM      3  N   UNL     1      31.460  20.191 -18.982  1.00  0.00    -0.335 N 
ATOM      4  C   UNL     1      28.582  21.076 -19.198  1.00  0.00     0.032 C 
ATOM      5  C   UNL     1      29.089  19.955 -18.260  1.00  0.00     0.070 C 
ATOM      6  C   UNL     1      29.746  21.706 -20.002  1.00  0.00     0.070 C 
ATOM      7  C   UNL     1      30.510  20.217 -17.790  1.00  0.00     0.262 C 
ATOM      8  C   UNL     1      30.863  20.712 -20.273  1.00  0.00     0.262 C 
ATOM      9  H   UNL     1      31.652  19.186 -19.128  1.00  0.00     0.348 HD
BRANCH   4  10
ATOM     10  C   UNL     1      27.390  20.562 -20.026  1.00  0.00    -0.026 A 
ATOM     11  N   UNL     1      25.648  21.465 -17.082  1.00  0.00    -0.192 NA
ATOM     12  C   UNL     1      25.803  21.044 -18.153  1.00  0.00     0.100 C 
ATOM     13  C   UNL     1      26.074  20.545 -19.475  1.00  0.00     0.058 A 
ATOM     14  C   UNL     1      24.996  20.039 -20.214  1.00  0.00     0.059 A 
ATOM     15  C   UNL     1      25.212  19.549 -21.496  1.00  0.00     0.124 A 
ATOM     16  C   UNL     1      27.564  20.059 -21.333  1.00  0.00     0.008 A 
ATOM     17  C   UNL     1      26.482  19.558 -22.061  1.00  0.00     0.039 A 
ATOM     18  F   UNL     1      24.183  19.046 -22.190  1.00  0.00    -0.207 F 
ENDBRANCH   4  10
ENDBRANCH   2   3
ENDBRANCH   1   2
BRANCH   1  19
ATOM     19  C   UNL     1      33.371  23.241 -17.828  1.00  0.00     0.122 C 
BRANCH  19  20
ATOM     20  N   UNL     1      33.009  23.844 -19.097  1.00  0.00    -0.352 N 
ATOM     21  C   UNL     1      33.900  24.152 -20.097  1.00  0.00     0.251 C 
ATOM     22  O   UNL     1      35.117  23.999 -20.023  1.00  0.00    -0.270 OA
ATOM     23  H   UNL     1      32.012  24.027 -19.245  1.00  0.00     0.163 HD
BRANCH  21  24
ATOM     24  C   UNL     1      33.279  24.814 -21.270  1.00  0.00     0.072 C 
ATOM     25  C   UNL     1      33.205  24.141 -22.435  1.00  0.00     0.135 C 
ATOM     26  C   UNL     1      32.651  26.162 -21.056  1.00  0.00     0.152 C 
ATOM     27  N   UNL     1      32.550  24.759 -23.490  1.00  0.00    -0.303 N 
ATOM     28  N   UNL     1      31.967  26.620 -22.248  1.00  0.00    -0.327 N 
ATOM     29  C   UNL     1      31.929  25.970 -23.436  1.00  0.00     0.320 C 
ATOM     30  O   UNL     1      31.370  26.461 -24.412  1.00  0.00    -0.248 OA
ATOM     31  H   UNL     1      32.480  24.298 -24.395  1.00  0.00     0.171 HD
ATOM     32  H   UNL     1      31.510  27.529 -22.238  1.00  0.00     0.166 HD
BRANCH  25  33
ATOM     33  C   UNL     1      33.780  22.762 -22.691  1.00  0.00     0.431 C 
ATOM     34  F   UNL     1      33.318  22.231 -23.849  1.00  0.00    -0.165 F 
ATOM     35  F   UNL     1      33.499  21.860 -21.709  1.00  0.00    -0.165 F 
ATOM     36  F   UNL     1      35.138  22.808 -22.787  1.00  0.00    -0.165 F 
ENDBRANCH  25  33
BRANCH  26  37
ATOM     37  C   UNL     1      33.655  27.220 -20.607  1.00  0.00    -0.018 A 
ATOM     38  C   UNL     1      34.926  27.290 -21.208  1.00  0.00     0.009 A 
ATOM     39  C   UNL     1      33.328  28.164 -19.610  1.00  0.00     0.048 A 
ATOM     40  C   UNL     1      35.835  28.295 -20.849  1.00  0.00     0.043 A 
ATOM     41  C   UNL     1      34.238  29.162 -19.266  1.00  0.00     0.159 A 
ATOM     42  C   UNL     1      35.478  29.233 -19.886  1.00  0.00     0.158 A 
ATOM     43  F   UNL     1      33.848  30.110 -18.397  1.00  0.00    -0.204 F 
ATOM     44  F   UNL     1      36.351  30.196 -19.559  1.00  0.00    -0.204 F 
ENDBRANCH  26  37
ENDBRANCH  21  24
ENDBRANCH  19  20
ENDBRANCH   1  19
TORSDOF 8
ENDMDL
MODEL 2
REMARK VINA RESULT:    -6.512      3.126      4.724
REMARK INTER + INTRA:         -11.270
REMARK INTER:                  -8.123
REMARK INTRA:                  -3.147
REMARK UNBOUND:                -1.712
REMARK SMILES N#Cc1cc(F)ccc1C1CC[NH+](CCCNC(=O)C2=C(C(F)(F)F)NC(=O)NC2c2ccc(F)c(F)c2)CC1
REMARK SMILES IDX 15 1 14 2 13 3 10 4 11 5 40 6 12 7 39 8 9 10 1 11 2 12 3 13
REMARK SMILES IDX 4 14 5 15 8 16 7 17 6 18 16 19 17 20 18 21 19 22 20 24 21 25
REMARK SMILES IDX 30 26 26 27 29 28 27 29 28 30 22 33 23 34 24 35 25 36 31 37
REMARK SMILES IDX 32 38 38 39 33 40 36 41 34 42 37 43 35 44
REMARK H PARENT 13 9 17 23 26 31 29 32
ROOT
ATOM      1  C   UNL     1      32.905  20.097 -24.562  1.00  0.00     0.083 C 
ENDROOT
BRANCH   1   2
ATOM      2  C   UNL     1      31.755  20.588 -25.462  1.00  0.00     0.264 C 
BRANCH   2   3
ATOM      3  N   UNL     1      30.399  20.230 -24.850  1.00  0.00    -0.335 N 
ATOM      4  C   UNL     1      29.266  19.914 -22.070  1.00  0.00     0.032 C 
ATOM      5  C   UNL     1      29.266  18.807 -23.151  1.00  0.00     0.070 C 
ATOM      6  C   UNL     1      29.944  21.206 -22.589  1.00  0.00     0.070 C 
ATOM      7  C   UNL     1      30.470  18.922 -24.072  1.00  0.00     0.262 C 
ATOM      8  C   UNL     1      29.776  21.382 -24.088  1.00  0.00     0.262 C 
ATOM      9  H   UNL     1      29.766  20.019 -25.640  1.00  0.00     0.348 HD
BRANCH   4  10
ATOM     10  C   UNL     1      27.848  20.078 -21.495  1.00  0.00    -0.026 A 
ATOM     11  N   UNL     1      29.700  20.944 -18.607  1.00  0.00    -0.192 NA
ATOM     12  C   UNL     1      28.764  20.729 -19.259  1.00  0.00     0.100 C 
ATOM     13  C   UNL     1      27.653  20.451 -20.132  1.00  0.00     0.058 A 
ATOM     14  C   UNL     1      26.362  20.561 -19.598  1.00  0.00     0.059 A 
ATOM     15  C   UNL     1      25.261  20.305 -20.405  1.00  0.00     0.124 A 
ATOM     16  C   UNL     1      26.702  19.832 -22.281  1.00  0.00     0.008 A 
ATOM     17  C   UNL     1      25.419  19.946 -21.739  1.00  0.00     0.039 A 
ATOM     18  F   UNL     1      24.030  20.390 -19.885  1.00  0.00    -0.207 F 
ENDBRANCH   4  10
ENDBRANCH   2   3
ENDBRANCH   1   2
BRANCH   1  19
ATOM     19  C   UNL     1      33.827  21.203 -24.030  1.00  0.00     0.122 C 
BRANCH  19  20
ATOM     20  N   UNL     1      33.480  21.619 -22.684  1.00  0.00    -0.352 N 
ATOM     21  C   UNL     1      34.365  21.686 -21.635  1.00  0.00     0.251 C 
ATOM     22  O   UNL     1      35.547  21.357 -21.693  1.00  0.00    -0.270 OA
ATOM     23  H   UNL     1      32.506  21.898 -22.532  1.00  0.00     0.163 HD
BRANCH  21  24
ATOM     24  C   UNL     1      33.742  22.087 -20.350  1.00  0.00     0.072 C 
ATOM     25  C   UNL     1      33.264  21.132 -19.530  1.00  0.00     0.135 C 
ATOM     26  C   UNL     1      33.795  23.543 -19.977  1.00  0.00     0.152 C 
ATOM     27  N   UNL     1      32.758  21.535 -18.303  1.00  0.00    -0.303 N 
ATOM     28  N   UNL     1      33.276  23.763 -18.643  1.00  0.00    -0.327 N 
ATOM     29  C   UNL     1      32.749  22.813 -17.832  1.00  0.00     0.320 C 
ATOM     30  O   UNL     1      32.282  23.102 -16.735  1.00  0.00    -0.248 OA
ATOM     31  H   UNL     1      32.372  20.852 -17.654  1.00  0.00     0.171 HD
ATOM     32  H   UNL     1      33.243  24.711 -18.275  1.00  0.00     0.166 HD
BRANCH  25  33
ATOM     33  C   UNL     1      33.229  19.648 -19.838  1.00  0.00     0.431 C 
ATOM     34  F   UNL     1      34.476  19.127 -19.946  1.00  0.00    -0.165 F 
ATOM     35  F   UNL     1      32.579  19.342 -20.996  1.00  0.00    -0.165 F 
ATOM     36  F   UNL     1      32.593  18.958 -18.851  1.00  0.00    -0.165 F 
ENDBRANCH  25  33
BRANCH  26  37
ATOM     37  C   UNL     1      33.051  24.436 -20.966  1.00  0.00    -0.018 A 
ATOM     38  C   UNL     1      33.768  25.273 -21.842  1.00  0.00     0.009 A 
ATOM     39  C   UNL     1      31.642  24.426 -21.046  1.00  0.00     0.048 A 
ATOM     40  C   UNL     1      33.100  26.052 -22.797  1.00  0.00     0.043 A 
ATOM     41  C   UNL     1      30.990  25.201 -22.004  1.00  0.00     0.159 A 
ATOM     42  C   UNL     1      31.713  26.001 -22.878  1.00  0.00     0.158 A 
ATOM     43  F   UNL     1      29.657  25.076 -22.126  1.00  0.00    -0.204 F 
ATOM     44  F   UNL     1      31.086  26.741 -23.803  1.00  0.00    -0.204 F 
ENDBRANCH  26  37
ENDBRANCH  21  24
ENDBRANCH  19  20
ENDBRANCH   1  19
TORSDOF 8
ENDMDL
MODEL 3
REMARK VINA RESULT:    -6.399      3.035      5.056
REMARK INTER + INTRA:         -11.104
REMARK INTER:                  -9.033
REMARK INTRA:                  -2.071
REMARK UNBOUND:                -1.712
REMARK SMILES N#Cc1cc(F)ccc1C1CC[NH+](CCCNC(=O)C2=C(C(F)(F)F)NC(=O)NC2c2ccc(F)c(F)c2)CC1
REMARK SMILES IDX 15 1 14 2 13 3 10 4 11 5 40 6 12 7 39 8 9 10 1 11 2 12 3 13
REMARK SMILES IDX 4 14 5 15 8 16 7 17 6 18 16 19 17 20 18 21 19 22 20 24 21 25
REMARK SMILES IDX 30 26 26 27 29 28 27 29 28 30 22 33 23 34 24 35 25 36 31 37
REMARK SMILES IDX 32 38 38 39 33 40 36 41 34 42 37 43 35 44
REMARK H PARENT 13 9 17 23 26 31 29 32
ROOT
ATOM      1  C   UNL     1      33.300  21.716 -24.582  1.00  0.00     0.083 C 
ENDROOT
BRANCH   1   2
ATOM      2  C   UNL     1      32.826  20.590 -23.642  1.00  0.00     0.264 C 
BRANCH   2   3
ATOM      3  N   UNL     1      31.441  20.907 -23.075  1.00  0.00    -0.335 N 
ATOM      4  C   UNL     1      28.669  19.730 -23.276  1.00  0.00     0.032 C 
ATOM      5  C   UNL     1      29.037  21.184 -23.659  1.00  0.00     0.070 C 
ATOM      6  C   UNL     1      29.912  18.944 -22.794  1.00  0.00     0.070 C 
ATOM      7  C   UNL     1      30.462  21.283 -24.180  1.00  0.00     0.262 C 
ATOM      8  C   UNL     1      30.937  19.842 -22.122  1.00  0.00     0.262 C 
ATOM      9  H   UNL     1      31.541  21.776 -22.522  1.00  0.00     0.348 HD
BRANCH   4  10
ATOM     10  C   UNL     1      27.460  19.735 -22.323  1.00  0.00    -0.026 A 
ATOM     11  N   UNL     1      25.880  18.383 -25.185  1.00  0.00    -0.192 NA
ATOM     12  C   UNL     1      25.978  18.784 -24.100  1.00  0.00     0.100 C 
ATOM     13  C   UNL     1      26.180  19.291 -22.768  1.00  0.00     0.058 A 
ATOM     14  C   UNL     1      25.071  19.333 -21.912  1.00  0.00     0.059 A 
ATOM     15  C   UNL     1      25.221  19.812 -20.617  1.00  0.00     0.124 A 
ATOM     16  C   UNL     1      27.569  20.209 -20.998  1.00  0.00     0.008 A 
ATOM     17  C   UNL     1      26.457  20.246 -20.153  1.00  0.00     0.039 A 
ATOM     18  F   UNL     1      24.154  19.872 -19.810  1.00  0.00    -0.207 F 
ENDBRANCH   4  10
ENDBRANCH   2   3
ENDBRANCH   1   2
BRANCH   1  19
ATOM     19  C   UNL     1      34.696  22.273 -24.272  1.00  0.00     0.122 C 
BRANCH  19  20
ATOM     20  N   UNL     1      34.659  23.380 -23.335  1.00  0.00    -0.352 N 
ATOM     21  C   UNL     1      34.541  24.701 -23.694  1.00  0.00     0.251 C 
ATOM     22  O   UNL     1      34.501  25.113 -24.851  1.00  0.00    -0.270 OA
ATOM     23  H   UNL     1      34.704  23.136 -22.342  1.00  0.00     0.163 HD
BRANCH  21  24
ATOM     24  C   UNL     1      34.584  25.640 -22.546  1.00  0.00     0.072 C 
ATOM     25  C   UNL     1      35.776  25.946 -21.999  1.00  0.00     0.135 C 
ATOM     26  C   UNL     1      33.296  26.299 -22.138  1.00  0.00     0.152 C 
ATOM     27  N   UNL     1      35.789  26.886 -20.978  1.00  0.00    -0.303 N 
ATOM     28  N   UNL     1      33.515  27.287 -21.103  1.00  0.00    -0.327 N 
ATOM     29  C   UNL     1      34.704  27.566 -20.514  1.00  0.00     0.320 C 
ATOM     30  O   UNL     1      34.787  28.384 -19.603  1.00  0.00    -0.248 OA
ATOM     31  H   UNL     1      36.663  27.141 -20.522  1.00  0.00     0.171 HD
ATOM     32  H   UNL     1      32.719  27.796 -20.727  1.00  0.00     0.166 HD
BRANCH  25  33
ATOM     33  C   UNL     1      37.108  25.347 -22.404  1.00  0.00     0.431 C 
ATOM     34  F   UNL     1      38.151  26.069 -21.926  1.00  0.00    -0.165 F 
ATOM     35  F   UNL     1      37.282  25.257 -23.752  1.00  0.00    -0.165 F 
ATOM     36  F   UNL     1      37.244  24.081 -21.919  1.00  0.00    -0.165 F 
ENDBRANCH  25  33
BRANCH  26  37
ATOM     37  C   UNL     1      32.240  25.299 -21.672  1.00  0.00    -0.018 A 
ATOM     38  C   UNL     1      30.945  25.330 -22.222  1.00  0.00     0.009 A 
ATOM     39  C   UNL     1      32.541  24.312 -20.710  1.00  0.00     0.048 A 
ATOM     40  C   UNL     1      29.984  24.380 -21.848  1.00  0.00     0.043 A 
ATOM     41  C   UNL     1      31.579  23.369 -20.351  1.00  0.00     0.159 A 
ATOM     42  C   UNL     1      30.314  23.397 -20.921  1.00  0.00     0.158 A 
ATOM     43  F   UNL     1      31.938  22.376 -19.519  1.00  0.00    -0.204 F 
ATOM     44  F   UNL     1      29.391  22.486 -20.581  1.00  0.00    -0.204 F 
ENDBRANCH  26  37
ENDBRANCH  21  24
ENDBRANCH  19  20
ENDBRANCH   1  19
TORSDOF 8
ENDMDL
MODEL 4
REMARK VINA RESULT:    -6.324      3.246      8.671
REMARK INTER + INTRA:         -10.993
REMARK INTER:                  -8.570
REMARK INTRA:                  -2.424
REMARK UNBOUND:                -1.712
REMARK SMILES N#Cc1cc(F)ccc1C1CC[NH+](CCCNC(=O)C2=C(C(F)(F)F)NC(=O)NC2c2ccc(F)c(F)c2)CC1
REMARK SMILES IDX 15 1 14 2 13 3 10 4 11 5 40 6 12 7 39 8 9 10 1 11 2 12 3 13
REMARK SMILES IDX 4 14 5 15 8 16 7 17 6 18 16 19 17 20 18 21 19 22 20 24 21 25
REMARK SMILES IDX 30 26 26 27 29 28 27 29 28 30 22 33 23 34 24 35 25 36 31 37
REMARK SMILES IDX 32 38 38 39 33 40 36 41 34 42 37 43 35 44
REMARK H PARENT 13 9 17 23 26 31 29 32
ROOT
ATOM      1  C   UNL     1      32.708  18.528 -19.502  1.00  0.00     0.083 C 
ENDROOT
BRANCH   1   2
ATOM      2  C   UNL     1      33.713  19.283 -18.611  1.00  0.00     0.264 C 
BRANCH   2   3
ATOM      3  N   UNL     1      34.061  20.642 -19.222  1.00  0.00    -0.335 N 
ATOM      4  C   UNL     1      32.580  23.183 -19.901  1.00  0.00     0.032 C 
ATOM      5  C   UNL     1      33.370  22.327 -20.919  1.00  0.00     0.070 C 
ATOM      6  C   UNL     1      32.627  22.558 -18.485  1.00  0.00     0.070 C 
ATOM      7  C   UNL     1      33.345  20.852 -20.551  1.00  0.00     0.262 C 
ATOM      8  C   UNL     1      33.911  21.785 -18.239  1.00  0.00     0.262 C 
ATOM      9  H   UNL     1      35.062  20.602 -19.480  1.00  0.00     0.348 HD
BRANCH   4  10
ATOM     10  C   UNL     1      33.021  24.653 -20.005  1.00  0.00    -0.026 A 
ATOM     11  N   UNL     1      30.267  24.763 -22.223  1.00  0.00    -0.192 NA
ATOM     12  C   UNL     1      31.189  25.152 -21.634  1.00  0.00     0.100 C 
ATOM     13  C   UNL     1      32.337  25.560 -20.868  1.00  0.00     0.058 A 
ATOM     14  C   UNL     1      32.765  26.889 -20.993  1.00  0.00     0.059 A 
ATOM     15  C   UNL     1      33.866  27.327 -20.270  1.00  0.00     0.124 A 
ATOM     16  C   UNL     1      34.133  25.142 -19.285  1.00  0.00     0.008 A 
ATOM     17  C   UNL     1      34.550  26.469 -19.417  1.00  0.00     0.039 A 
ATOM     18  F   UNL     1      34.285  28.592 -20.410  1.00  0.00    -0.207 F 
ENDBRANCH   4  10
ENDBRANCH   2   3
ENDBRANCH   1   2
BRANCH   1  19
ATOM     19  C   UNL     1      31.417  18.091 -18.794  1.00  0.00     0.122 C 
BRANCH  19  20
ATOM     20  N   UNL     1      30.227  18.419 -19.554  1.00  0.00    -0.352 N 
ATOM     21  C   UNL     1      29.576  19.629 -19.502  1.00  0.00     0.251 C 
ATOM     22  O   UNL     1      29.892  20.564 -18.770  1.00  0.00    -0.270 OA
ATOM     23  H   UNL     1      29.875  17.692 -20.183  1.00  0.00     0.163 HD
BRANCH  21  24
ATOM     24  C   UNL     1      28.350  19.687 -20.334  1.00  0.00     0.072 C 
ATOM     25  C   UNL     1      28.430  20.199 -21.577  1.00  0.00     0.135 C 
ATOM     26  C   UNL     1      27.105  19.050 -19.783  1.00  0.00     0.152 C 
ATOM     27  N   UNL     1      27.283  20.168 -22.357  1.00  0.00    -0.303 N 
ATOM     28  N   UNL     1      26.033  19.061 -20.757  1.00  0.00    -0.327 N 
ATOM     29  C   UNL     1      26.092  19.617 -21.992  1.00  0.00     0.320 C 
ATOM     30  O   UNL     1      25.113  19.627 -22.732  1.00  0.00    -0.248 OA
ATOM     31  H   UNL     1      27.288  20.556 -23.299  1.00  0.00     0.171 HD
ATOM     32  H   UNL     1      25.128  18.671 -20.502  1.00  0.00     0.166 HD
BRANCH  25  33
ATOM     33  C   UNL     1      29.670  20.810 -22.197  1.00  0.00     0.431 C 
ATOM     34  F   UNL     1      30.173  21.812 -21.435  1.00  0.00    -0.165 F 
ATOM     35  F   UNL     1      29.463  21.332 -23.439  1.00  0.00    -0.165 F 
ATOM     36  F   UNL     1      30.657  19.881 -22.336  1.00  0.00    -0.165 F 
ENDBRANCH  25  33
BRANCH  26  37
ATOM     37  C   UNL     1      26.625  19.706 -18.491  1.00  0.00    -0.018 A 
ATOM     38  C   UNL     1      26.434  21.100 -18.433  1.00  0.00     0.009 A 
ATOM     39  C   UNL     1      26.335  18.938 -17.343  1.00  0.00     0.048 A 
ATOM     40  C   UNL     1      25.935  21.708 -17.272  1.00  0.00     0.043 A 
ATOM     41  C   UNL     1      25.834  19.554 -16.197  1.00  0.00     0.159 A 
ATOM     42  C   UNL     1      25.627  20.925 -16.164  1.00  0.00     0.158 A 
ATOM     43  F   UNL     1      25.462  18.776 -15.166  1.00  0.00    -0.204 F 
ATOM     44  F   UNL     1      25.140  21.517 -15.065  1.00  0.00    -0.204 F 
ENDBRANCH  26  37
ENDBRANCH  21  24
ENDBRANCH  19  20
ENDBRANCH   1  19
TORSDOF 8
ENDMDL
MODEL 5
REMARK VINA RESULT:    -6.304      2.921      4.034
REMARK INTER + INTRA:         -10.965
REMARK INTER:                  -9.230
REMARK INTRA:                  -1.735
REMARK UNBOUND:                -1.712
REMARK SMILES N#Cc1cc(F)ccc1C1CC[NH+](CCCNC(=O)C2=C(C(F)(F)F)NC(=O)NC2c2ccc(F)c(F)c2)CC1
REMARK SMILES IDX 15 1 14 2 13 3 10 4 11 5 40 6 12 7 39 8 9 10 1 11 2 12 3 13
REMARK SMILES IDX 4 14 5 15 8 16 7 17 6 18 16 19 17 20 18 21 19 22 20 24 21 25
REMARK SMILES IDX 30 26 26 27 29 28 27 29 28 30 22 33 23 34 24 35 25 36 31 37
REMARK SMILES IDX 32 38 38 39 33 40 36 41 34 42 37 43 35 44
REMARK H PARENT 13 9 17 23 26 31 29 32
ROOT
ATOM      1  C   UNL     1      32.809  20.746 -23.281  1.00  0.00     0.083 C 
ENDROOT
BRANCH   1   2
ATOM      2  C   UNL     1      32.529  19.835 -22.070  1.00  0.00     0.264 C 
BRANCH   2   3
ATOM      3  N   UNL     1      31.557  20.510 -21.100  1.00  0.00    -0.335 N 
ATOM      4  C   UNL     1      28.564  20.638 -20.731  1.00  0.00     0.032 C 
ATOM      5  C   UNL     1      29.477  21.869 -20.947  1.00  0.00     0.070 C 
ATOM      6  C   UNL     1      29.381  19.322 -20.749  1.00  0.00     0.070 C 
ATOM      7  C   UNL     1      30.679  21.530 -21.814  1.00  0.00     0.262 C 
ATOM      8  C   UNL     1      30.799  19.518 -20.241  1.00  0.00     0.262 C 
ATOM      9  H   UNL     1      32.132  21.080 -20.456  1.00  0.00     0.348 HD
BRANCH   4  10
ATOM     10  C   UNL     1      27.672  20.864 -19.497  1.00  0.00    -0.026 A 
ATOM     11  N   UNL     1      25.199  19.687 -21.737  1.00  0.00    -0.192 NA
ATOM     12  C   UNL     1      25.643  20.103 -20.748  1.00  0.00     0.100 C 
ATOM     13  C   UNL     1      26.269  20.614 -19.557  1.00  0.00     0.058 A 
ATOM     14  C   UNL     1      25.451  20.857 -18.445  1.00  0.00     0.059 A 
ATOM     15  C   UNL     1      26.013  21.348 -17.274  1.00  0.00     0.124 A 
ATOM     16  C   UNL     1      28.203  21.357 -18.285  1.00  0.00     0.008 A 
ATOM     17  C   UNL     1      27.378  21.596 -17.183  1.00  0.00     0.039 A 
ATOM     18  F   UNL     1      25.224  21.601 -16.221  1.00  0.00    -0.207 F 
ENDBRANCH   4  10
ENDBRANCH   2   3
ENDBRANCH   1   2
BRANCH   1  19
ATOM     19  C   UNL     1      34.096  21.577 -23.181  1.00  0.00     0.122 C 
BRANCH  19  20
ATOM     20  N   UNL     1      33.884  22.857 -22.534  1.00  0.00    -0.352 N 
ATOM     21  C   UNL     1      34.219  24.073 -23.080  1.00  0.00     0.251 C 
ATOM     22  O   UNL     1      34.782  24.225 -24.162  1.00  0.00    -0.270 OA
ATOM     23  H   UNL     1      33.433  22.832 -21.615  1.00  0.00     0.163 HD
BRANCH  21  24
ATOM     24  C   UNL     1      33.948  25.227 -22.188  1.00  0.00     0.072 C 
ATOM     25  C   UNL     1      32.851  25.977 -22.406  1.00  0.00     0.135 C 
ATOM     26  C   UNL     1      34.856  25.418 -21.005  1.00  0.00     0.152 C 
ATOM     27  N   UNL     1      32.587  27.000 -21.507  1.00  0.00    -0.303 N 
ATOM     28  N   UNL     1      34.391  26.492 -20.153  1.00  0.00    -0.327 N 
ATOM     29  C   UNL     1      33.315  27.281 -20.391  1.00  0.00     0.320 C 
ATOM     30  O   UNL     1      33.026  28.207 -19.639  1.00  0.00    -0.248 OA
ATOM     31  H   UNL     1      31.777  27.604 -21.636  1.00  0.00     0.171 HD
ATOM     32  H   UNL     1      34.927  26.733 -19.322  1.00  0.00     0.166 HD
BRANCH  25  33
ATOM     33  C   UNL     1      31.879  25.797 -23.555  1.00  0.00     0.431 C 
ATOM     34  F   UNL     1      30.783  26.582 -23.414  1.00  0.00    -0.165 F 
ATOM     35  F   UNL     1      31.427  24.519 -23.697  1.00  0.00    -0.165 F 
ATOM     36  F   UNL     1      32.457  26.129 -24.742  1.00  0.00    -0.165 F 
ENDBRANCH  25  33
BRANCH  26  37
ATOM     37  C   UNL     1      36.306  25.678 -21.405  1.00  0.00    -0.018 A 
ATOM     38  C   UNL     1      37.247  24.631 -21.378  1.00  0.00     0.009 A 
ATOM     39  C   UNL     1      36.729  26.953 -21.836  1.00  0.00     0.048 A 
ATOM     40  C   UNL     1      38.566  24.841 -21.802  1.00  0.00     0.043 A 
ATOM     41  C   UNL     1      38.043  27.148 -22.261  1.00  0.00     0.159 A 
ATOM     42  C   UNL     1      38.952  26.100 -22.252  1.00  0.00     0.158 A 
ATOM     43  F   UNL     1      38.377  28.345 -22.771  1.00  0.00    -0.204 F 
ATOM     44  F   UNL     1      40.213  26.285 -22.666  1.00  0.00    -0.204 F 
ENDBRANCH  26  37
ENDBRANCH  21  24
ENDBRANCH  19  20
ENDBRANCH   1  19
TORSDOF 8
ENDMDL
MODEL 6
REMARK VINA RESULT:    -6.257      4.899     11.377
REMARK INTER + INTRA:         -10.895
REMARK INTER:                  -9.245
REMARK INTRA:                  -1.650
REMARK UNBOUND:                -1.712
REMARK SMILES N#Cc1cc(F)ccc1C1CC[NH+](CCCNC(=O)C2=C(C(F)(F)F)NC(=O)NC2c2ccc(F)c(F)c2)CC1
REMARK SMILES IDX 15 1 14 2 13 3 10 4 11 5 40 6 12 7 39 8 9 10 1 11 2 12 3 13
REMARK SMILES IDX 4 14 5 15 8 16 7 17 6 18 16 19 17 20 18 21 19 22 20 24 21 25
REMARK SMILES IDX 30 26 26 27 29 28 27 29 28 30 22 33 23 34 24 35 25 36 31 37
REMARK SMILES IDX 32 38 38 39 33 40 36 41 34 42 37 43 35 44
REMARK H PARENT 13 9 17 23 26 31 29 32
ROOT
ATOM      1  C   UNL     1      35.237  28.834 -16.957  1.00  0.00     0.083 C 
ENDROOT
BRANCH   1   2
ATOM      2  C   UNL     1      34.185  29.632 -16.162  1.00  0.00     0.264 C 
BRANCH   2   3
ATOM      3  N   UNL     1      34.004  31.030 -16.756  1.00  0.00    -0.335 N 
ATOM      4  C   UNL     1      35.501  33.651 -16.684  1.00  0.00     0.032 C 
ATOM      5  C   UNL     1      34.032  33.463 -16.232  1.00  0.00     0.070 C 
ATOM      6  C   UNL     1      36.117  32.313 -17.161  1.00  0.00     0.070 C 
ATOM      7  C   UNL     1      33.793  32.073 -15.666  1.00  0.00     0.262 C 
ATOM      8  C   UNL     1      35.078  31.383 -17.766  1.00  0.00     0.262 C 
ATOM      9  H   UNL     1      33.107  31.019 -17.270  1.00  0.00     0.348 HD
BRANCH   4  10
ATOM     10  C   UNL     1      35.594  34.828 -17.671  1.00  0.00    -0.026 A 
ATOM     11  N   UNL     1      38.023  35.898 -15.331  1.00  0.00    -0.192 NA
ATOM     12  C   UNL     1      37.346  35.941 -16.274  1.00  0.00     0.100 C 
ATOM     13  C   UNL     1      36.480  35.919 -17.423  1.00  0.00     0.058 A 
ATOM     14  C   UNL     1      36.535  37.009 -18.302  1.00  0.00     0.059 A 
ATOM     15  C   UNL     1      35.718  37.028 -19.425  1.00  0.00     0.124 A 
ATOM     16  C   UNL     1      34.785  34.886 -18.827  1.00  0.00     0.008 A 
ATOM     17  C   UNL     1      34.849  35.978 -19.696  1.00  0.00     0.039 A 
ATOM     18  F   UNL     1      35.758  38.083 -20.249  1.00  0.00    -0.207 F 
ENDBRANCH   4  10
ENDBRANCH   2   3
ENDBRANCH   1   2
BRANCH   1  19
ATOM     19  C   UNL     1      34.874  27.365 -17.215  1.00  0.00     0.122 C 
BRANCH  19  20
ATOM     20  N   UNL     1      35.341  26.895 -18.506  1.00  0.00    -0.352 N 
ATOM     21  C   UNL     1      34.864  27.336 -19.717  1.00  0.00     0.251 C 
ATOM     22  O   UNL     1      33.951  28.147 -19.857  1.00  0.00    -0.270 OA
ATOM     23  H   UNL     1      36.093  26.200 -18.491  1.00  0.00     0.163 HD
BRANCH  21  24
ATOM     24  C   UNL     1      35.470  26.654 -20.885  1.00  0.00     0.072 C 
ATOM     25  C   UNL     1      36.487  27.251 -21.534  1.00  0.00     0.135 C 
ATOM     26  C   UNL     1      34.991  25.265 -21.204  1.00  0.00     0.152 C 
ATOM     27  N   UNL     1      37.081  26.552 -22.574  1.00  0.00    -0.303 N 
ATOM     28  N   UNL     1      35.764  24.675 -22.277  1.00  0.00    -0.327 N 
ATOM     29  C   UNL     1      36.758  25.288 -22.965  1.00  0.00     0.320 C 
ATOM     30  O   UNL     1      37.324  24.728 -23.899  1.00  0.00    -0.248 OA
ATOM     31  H   UNL     1      37.846  26.966 -23.105  1.00  0.00     0.171 HD
ATOM     32  H   UNL     1      35.531  23.738 -22.599  1.00  0.00     0.166 HD
BRANCH  25  33
ATOM     33  C   UNL     1      37.038  28.629 -21.224  1.00  0.00     0.431 C 
ATOM     34  F   UNL     1      37.434  28.733 -19.932  1.00  0.00    -0.165 F 
ATOM     35  F   UNL     1      36.148  29.637 -21.441  1.00  0.00    -0.165 F 
ATOM     36  F   UNL     1      38.124  28.908 -21.998  1.00  0.00    -0.165 F 
ENDBRANCH  25  33
BRANCH  26  37
ATOM     37  C   UNL     1      33.507  25.215 -21.560  1.00  0.00    -0.018 A 
ATOM     38  C   UNL     1      32.623  24.425 -20.800  1.00  0.00     0.009 A 
ATOM     39  C   UNL     1      32.985  25.972 -22.629  1.00  0.00     0.048 A 
ATOM     40  C   UNL     1      31.249  24.419 -21.077  1.00  0.00     0.043 A 
ATOM     41  C   UNL     1      31.616  25.962 -22.891  1.00  0.00     0.159 A 
ATOM     42  C   UNL     1      30.754  25.199 -22.117  1.00  0.00     0.158 A 
ATOM     43  F   UNL     1      31.142  26.784 -23.843  1.00  0.00    -0.204 F 
ATOM     44  F   UNL     1      29.436  25.193 -22.365  1.00  0.00    -0.204 F 
ENDBRANCH  26  37
ENDBRANCH  21  24
ENDBRANCH  19  20
ENDBRANCH   1  19
TORSDOF 8
ENDMDL
MODEL 7
REMARK VINA RESULT:    -6.223      2.833      4.055
REMARK INTER + INTRA:         -10.846
REMARK INTER:                  -9.008
REMARK INTRA:                  -1.838
REMARK UNBOUND:                -1.712
REMARK SMILES N#Cc1cc(F)ccc1C1CC[NH+](CCCNC(=O)C2=C(C(F)(F)F)NC(=O)NC2c2ccc(F)c(F)c2)CC1
REMARK SMILES IDX 15 1 14 2 13 3 10 4 11 5 40 6 12 7 39 8 9 10 1 11 2 12 3 13
REMARK SMILES IDX 4 14 5 15 8 16 7 17 6 18 16 19 17 20 18 21 19 22 20 24 21 25
REMARK SMILES IDX 30 26 26 27 29 28 27 29 28 30 22 33 23 34 24 35 25 36 31 37
REMARK SMILES IDX 32 38 38 39 33 40 36 41 34 42 37 43 35 44
REMARK H PARENT 13 9 17 23 26 31 29 32
ROOT
ATOM      1  C   UNL     1      33.436  20.917 -23.770  1.00  0.00     0.083 C 
ENDROOT
BRANCH   1   2
ATOM      2  C   UNL     1      32.402  21.319 -24.841  1.00  0.00     0.264 C 
BRANCH   2   3
ATOM      3  N   UNL     1      31.011  20.803 -24.468  1.00  0.00    -0.335 N 
ATOM      4  C   UNL     1      29.518  20.169 -21.922  1.00  0.00     0.032 C 
ATOM      5  C   UNL     1      29.779  19.158 -23.064  1.00  0.00     0.070 C 
ATOM      6  C   UNL     1      30.141  21.551 -22.242  1.00  0.00     0.070 C 
ATOM      7  C   UNL     1      31.089  19.446 -23.780  1.00  0.00     0.262 C 
ATOM      8  C   UNL     1      30.178  21.834 -23.734  1.00  0.00     0.262 C 
ATOM      9  H   UNL     1      30.522  20.605 -25.358  1.00  0.00     0.348 HD
BRANCH   4  10
ATOM     10  C   UNL     1      28.022  20.170 -21.561  1.00  0.00    -0.026 A 
ATOM     11  N   UNL     1      29.341  20.991 -18.382  1.00  0.00    -0.192 NA
ATOM     12  C   UNL     1      28.534  20.741 -19.179  1.00  0.00     0.100 C 
ATOM     13  C   UNL     1      27.595  20.428 -20.224  1.00  0.00     0.058 A 
ATOM     14  C   UNL     1      26.235  20.389 -19.888  1.00  0.00     0.059 A 
ATOM     15  C   UNL     1      25.294  20.094 -20.865  1.00  0.00     0.124 A 
ATOM     16  C   UNL     1      27.032  19.880 -22.524  1.00  0.00     0.008 A 
ATOM     17  C   UNL     1      25.678  19.844 -22.177  1.00  0.00     0.039 A 
ATOM     18  F   UNL     1      23.998  20.036 -20.534  1.00  0.00    -0.207 F 
ENDBRANCH   4  10
ENDBRANCH   2   3
ENDBRANCH   1   2
BRANCH   1  19
ATOM     19  C   UNL     1      34.630  21.872 -23.634  1.00  0.00     0.122 C 
BRANCH  19  20
ATOM     20  N   UNL     1      34.300  23.075 -22.894  1.00  0.00    -0.352 N 
ATOM     21  C   UNL     1      34.604  24.352 -23.304  1.00  0.00     0.251 C 
ATOM     22  O   UNL     1      35.235  24.630 -24.321  1.00  0.00    -0.270 OA
ATOM     23  H   UNL     1      33.786  22.943 -22.019  1.00  0.00     0.163 HD
BRANCH  21  24
ATOM     24  C   UNL     1      34.206  25.403 -22.336  1.00  0.00     0.072 C 
ATOM     25  C   UNL     1      33.054  26.071 -22.538  1.00  0.00     0.135 C 
ATOM     26  C   UNL     1      35.056  25.576 -21.109  1.00  0.00     0.152 C 
ATOM     27  N   UNL     1      32.672  26.993 -21.574  1.00  0.00    -0.303 N 
ATOM     28  N   UNL     1      34.472  26.536 -20.195  1.00  0.00    -0.327 N 
ATOM     29  C   UNL     1      33.338  27.246 -20.413  1.00  0.00     0.320 C 
ATOM     30  O   UNL     1      32.945  28.080 -19.603  1.00  0.00    -0.248 OA
ATOM     31  H   UNL     1      31.817  27.534 -21.686  1.00  0.00     0.171 HD
ATOM     32  H   UNL     1      34.958  26.755 -19.329  1.00  0.00     0.166 HD
BRANCH  25  33
ATOM     33  C   UNL     1      32.137  25.901 -23.732  1.00  0.00     0.431 C 
ATOM     34  F   UNL     1      32.757  26.229 -24.893  1.00  0.00    -0.165 F 
ATOM     35  F   UNL     1      31.006  26.657 -23.668  1.00  0.00    -0.165 F 
ATOM     36  F   UNL     1      31.723  24.609 -23.853  1.00  0.00    -0.165 F 
ENDBRANCH  25  33
BRANCH  26  37
ATOM     37  C   UNL     1      36.489  25.991 -21.433  1.00  0.00    -0.018 A 
ATOM     38  C   UNL     1      37.536  25.055 -21.334  1.00  0.00     0.009 A 
ATOM     39  C   UNL     1      36.793  27.300 -21.863  1.00  0.00     0.048 A 
ATOM     40  C   UNL     1      38.847  25.405 -21.688  1.00  0.00     0.043 A 
ATOM     41  C   UNL     1      38.099  27.634 -22.218  1.00  0.00     0.159 A 
ATOM     42  C   UNL     1      39.116  26.693 -22.140  1.00  0.00     0.158 A 
ATOM     43  F   UNL     1      38.329  28.854 -22.732  1.00  0.00    -0.204 F 
ATOM     44  F   UNL     1      40.371  27.012 -22.486  1.00  0.00    -0.204 F 
ENDBRANCH  26  37
ENDBRANCH  21  24
ENDBRANCH  19  20
ENDBRANCH   1  19
TORSDOF 8
ENDMDL
MODEL 8
REMARK VINA RESULT:    -6.220      2.672      4.463
REMARK INTER + INTRA:         -10.841
REMARK INTER:                  -8.774
REMARK INTRA:                  -2.067
REMARK UNBOUND:                -1.712
REMARK SMILES N#Cc1cc(F)ccc1C1CC[NH+](CCCNC(=O)C2=C(C(F)(F)F)NC(=O)NC2c2ccc(F)c(F)c2)CC1
REMARK SMILES IDX 15 1 14 2 13 3 10 4 11 5 40 6 12 7 39 8 9 10 1 11 2 12 3 13
REMARK SMILES IDX 4 14 5 15 8 16 7 17 6 18 16 19 17 20 18 21 19 22 20 24 21 25
REMARK SMILES IDX 30 26 26 27 29 28 27 29 28 30 22 33 23 34 24 35 25 36 31 37
REMARK SMILES IDX 32 38 38 39 33 40 36 41 34 42 37 43 35 44
REMARK H PARENT 13 9 17 23 26 31 29 32
ROOT
ATOM      1  C   UNL     1      34.050  21.089 -20.038  1.00  0.00     0.083 C 
ENDROOT
BRANCH   1   2
ATOM      2  C   UNL     1      33.232  21.565 -18.821  1.00  0.00     0.264 C 
BRANCH   2   3
ATOM      3  N   UNL     1      31.765  21.772 -19.204  1.00  0.00    -0.335 N 
ATOM      4  C   UNL     1      29.722  20.342 -20.906  1.00  0.00     0.032 C 
ATOM      5  C   UNL     1      30.164  21.811 -21.110  1.00  0.00     0.070 C 
ATOM      6  C   UNL     1      30.479  19.686 -19.724  1.00  0.00     0.070 C 
ATOM      7  C   UNL     1      31.612  22.023 -20.700  1.00  0.00     0.262 C 
ATOM      8  C   UNL     1      30.854  20.694 -18.651  1.00  0.00     0.262 C 
ATOM      9  H   UNL     1      31.469  22.662 -18.769  1.00  0.00     0.348 HD
BRANCH   4  10
ATOM     10  C   UNL     1      28.186  20.265 -20.850  1.00  0.00    -0.026 A 
ATOM     11  N   UNL     1      28.646  19.337 -24.233  1.00  0.00    -0.192 NA
ATOM     12  C   UNL     1      28.071  19.595 -23.258  1.00  0.00     0.100 C 
ATOM     13  C   UNL     1      27.431  19.923 -22.012  1.00  0.00     0.058 A 
ATOM     14  C   UNL     1      26.031  19.892 -21.970  1.00  0.00     0.059 A 
ATOM     15  C   UNL     1      25.371  20.199 -20.787  1.00  0.00     0.124 A 
ATOM     16  C   UNL     1      27.476  20.565 -19.667  1.00  0.00     0.008 A 
ATOM     17  C   UNL     1      26.079  20.530 -19.638  1.00  0.00     0.039 A 
ATOM     18  F   UNL     1      24.032  20.190 -20.759  1.00  0.00    -0.207 F 
ENDBRANCH   4  10
ENDBRANCH   2   3
ENDBRANCH   1   2
BRANCH   1  19
ATOM     19  C   UNL     1      35.124  22.074 -20.519  1.00  0.00     0.122 C 
BRANCH  19  20
ATOM     20  N   UNL     1      34.771  23.456 -20.257  1.00  0.00    -0.352 N 
ATOM     21  C   UNL     1      35.663  24.502 -20.250  1.00  0.00     0.251 C 
ATOM     22  O   UNL     1      36.876  24.390 -20.416  1.00  0.00    -0.270 OA
ATOM     23  H   UNL     1      33.780  23.647 -20.088  1.00  0.00     0.163 HD
BRANCH  21  24
ATOM     24  C   UNL     1      35.054  25.807 -19.898  1.00  0.00     0.072 C 
ATOM     25  C   UNL     1      35.001  26.174 -18.603  1.00  0.00     0.135 C 
ATOM     26  C   UNL     1      34.642  26.709 -21.028  1.00  0.00     0.152 C 
ATOM     27  N   UNL     1      34.495  27.433 -18.315  1.00  0.00    -0.303 N 
ATOM     28  N   UNL     1      34.195  27.996 -20.538  1.00  0.00    -0.327 N 
ATOM     29  C   UNL     1      34.094  28.355 -19.235  1.00  0.00     0.320 C 
ATOM     30  O   UNL     1      33.652  29.452 -18.910  1.00  0.00    -0.248 OA
ATOM     31  H   UNL     1      34.421  27.752 -17.351  1.00  0.00     0.171 HD
ATOM     32  H   UNL     1      33.874  28.695 -21.204  1.00  0.00     0.166 HD
BRANCH  25  33
ATOM     33  C   UNL     1      35.446  25.323 -17.430  1.00  0.00     0.431 C 
ATOM     34  F   UNL     1      36.772  25.049 -17.482  1.00  0.00    -0.165 F 
ATOM     35  F   UNL     1      34.803  24.124 -17.347  1.00  0.00    -0.165 F 
ATOM     36  F   UNL     1      35.216  25.959 -16.248  1.00  0.00    -0.165 F 
ENDBRANCH  25  33
BRANCH  26  37
ATOM     37  C   UNL     1      33.557  26.096 -21.910  1.00  0.00    -0.018 A 
ATOM     38  C   UNL     1      33.879  25.602 -23.188  1.00  0.00     0.009 A 
ATOM     39  C   UNL     1      32.224  25.985 -21.461  1.00  0.00     0.048 A 
ATOM     40  C   UNL     1      32.906  24.981 -23.984  1.00  0.00     0.043 A 
ATOM     41  C   UNL     1      31.266  25.361 -22.259  1.00  0.00     0.159 A 
ATOM     42  C   UNL     1      31.605  24.855 -23.506  1.00  0.00     0.158 A 
ATOM     43  F   UNL     1      30.037  25.171 -21.750  1.00  0.00    -0.204 F 
ATOM     44  F   UNL     1      30.686  24.250 -24.270  1.00  0.00    -0.204 F 
ENDBRANCH  26  37
ENDBRANCH  21  24
ENDBRANCH  19  20
ENDBRANCH   1  19
TORSDOF 8
ENDMDL
MODEL 9
REMARK VINA RESULT:    -6.203      2.607      4.123
REMARK INTER + INTRA:         -10.816
REMARK INTER:                  -8.722
REMARK INTRA:                  -2.094
REMARK UNBOUND:                -1.712
REMARK SMILES N#Cc1cc(F)ccc1C1CC[NH+](CCCNC(=O)C2=C(C(F)(F)F)NC(=O)NC2c2ccc(F)c(F)c2)CC1
REMARK SMILES IDX 15 1 14 2 13 3 10 4 11 5 40 6 12 7 39 8 9 10 1 11 2 12 3 13
REMARK SMILES IDX 4 14 5 15 8 16 7 17 6 18 16 19 17 20 18 21 19 22 20 24 21 25
REMARK SMILES IDX 30 26 26 27 29 28 27 29 28 30 22 33 23 34 24 35 25 36 31 37
REMARK SMILES IDX 32 38 38 39 33 40 36 41 34 42 37 43 35 44
REMARK H PARENT 13 9 17 23 26 31 29 32
ROOT
ATOM      1  C   UNL     1      34.301  21.548 -21.385  1.00  0.00     0.083 C 
ENDROOT
BRANCH   1   2
ATOM      2  C   UNL     1      33.038  22.320 -21.813  1.00  0.00     0.264 C 
BRANCH   2   3
ATOM      3  N   UNL     1      31.817  21.398 -21.819  1.00  0.00    -0.335 N 
ATOM      4  C   UNL     1      29.280  21.112 -20.209  1.00  0.00     0.032 C 
ATOM      5  C   UNL     1      30.339  19.998 -20.387  1.00  0.00     0.070 C 
ATOM      6  C   UNL     1      29.696  22.407 -20.949  1.00  0.00     0.070 C 
ATOM      7  C   UNL     1      31.738  20.574 -20.540  1.00  0.00     0.262 C 
ATOM      8  C   UNL     1      30.535  22.121 -22.183  1.00  0.00     0.262 C 
ATOM      9  H   UNL     1      31.982  20.696 -22.561  1.00  0.00     0.348 HD
BRANCH   4  10
ATOM     10  C   UNL     1      27.884  20.559 -20.549  1.00  0.00    -0.026 A 
ATOM     11  N   UNL     1      27.186  21.831 -17.322  1.00  0.00    -0.192 NA
ATOM     12  C   UNL     1      26.986  21.294 -18.332  1.00  0.00     0.100 C 
ATOM     13  C   UNL     1      26.816  20.649 -19.607  1.00  0.00     0.058 A 
ATOM     14  C   UNL     1      25.556  20.110 -19.901  1.00  0.00     0.059 A 
ATOM     15  C   UNL     1      25.346  19.481 -21.121  1.00  0.00     0.124 A 
ATOM     16  C   UNL     1      27.625  19.916 -21.779  1.00  0.00     0.008 A 
ATOM     17  C   UNL     1      26.365  19.383 -22.061  1.00  0.00     0.039 A 
ATOM     18  F   UNL     1      24.147  18.947 -21.388  1.00  0.00    -0.207 F 
ENDBRANCH   4  10
ENDBRANCH   2   3
ENDBRANCH   1   2
BRANCH   1  19
ATOM     19  C   UNL     1      35.018  22.115 -20.151  1.00  0.00     0.122 C 
BRANCH  19  20
ATOM     20  N   UNL     1      34.711  23.514 -19.922  1.00  0.00    -0.352 N 
ATOM     21  C   UNL     1      35.616  24.541 -20.044  1.00  0.00     0.251 C 
ATOM     22  O   UNL     1      36.806  24.399 -20.314  1.00  0.00    -0.270 OA
ATOM     23  H   UNL     1      33.742  23.731 -19.674  1.00  0.00     0.163 HD
BRANCH  21  24
ATOM     24  C   UNL     1      35.061  25.873 -19.700  1.00  0.00     0.072 C 
ATOM     25  C   UNL     1      34.931  26.209 -18.402  1.00  0.00     0.135 C 
ATOM     26  C   UNL     1      34.790  26.827 -20.830  1.00  0.00     0.152 C 
ATOM     27  N   UNL     1      34.482  27.490 -18.115  1.00  0.00    -0.303 N 
ATOM     28  N   UNL     1      34.386  28.126 -20.336  1.00  0.00    -0.327 N 
ATOM     29  C   UNL     1      34.208  28.457 -19.034  1.00  0.00     0.320 C 
ATOM     30  O   UNL     1      33.809  29.572 -18.709  1.00  0.00    -0.248 OA
ATOM     31  H   UNL     1      34.354  27.788 -17.149  1.00  0.00     0.171 HD
ATOM     32  H   UNL     1      34.159  28.861 -21.002  1.00  0.00     0.166 HD
BRANCH  25  33
ATOM     33  C   UNL     1      35.234  25.303 -17.225  1.00  0.00     0.431 C 
ATOM     34  F   UNL     1      36.465  24.743 -17.325  1.00  0.00    -0.165 F 
ATOM     35  F   UNL     1      34.350  24.276 -17.082  1.00  0.00    -0.165 F 
ATOM     36  F   UNL     1      35.205  25.996 -16.053  1.00  0.00    -0.165 F 
ENDBRANCH  25  33
BRANCH  26  37
ATOM     37  C   UNL     1      33.741  26.305 -21.808  1.00  0.00    -0.018 A 
ATOM     38  C   UNL     1      34.129  25.824 -23.073  1.00  0.00     0.009 A 
ATOM     39  C   UNL     1      32.373  26.266 -21.462  1.00  0.00     0.048 A 
ATOM     40  C   UNL     1      33.183  25.286 -23.956  1.00  0.00     0.043 A 
ATOM     41  C   UNL     1      31.443  25.722 -22.347  1.00  0.00     0.159 A 
ATOM     42  C   UNL     1      31.845  25.228 -23.580  1.00  0.00     0.158 A 
ATOM     43  F   UNL     1      30.169  25.596 -21.937  1.00  0.00    -0.204 F 
ATOM     44  F   UNL     1      30.952  24.700 -24.429  1.00  0.00    -0.204 F 
ENDBRANCH  26  37
ENDBRANCH  21  24
ENDBRANCH  19  20
ENDBRANCH   1  19
TORSDOF 8
ENDMDL
