MODEL 1
REMARK VINA RESULT:    -6.791      0.000      0.000
REMARK INTER + INTRA:          -9.154
REMARK INTER:                  -8.379
REMARK INTRA:                  -0.775
REMARK UNBOUND:                -0.775
REMARK SMILES Cc1cccc(NC(=O)NNc2nc3ccccc3c(=O)n2-c2cccc(N(C)C)c2)c1
REMARK SMILES IDX 11 1 12 2 13 3 14 4 15 5 16 6 17 7 18 8 19 9 20 10 21 11
REMARK SMILES IDX 22 12 10 14 7 15 8 16 9 17 6 20 2 21 3 22 32 23 4 24 5 25
REMARK SMILES IDX 1 26 23 27 24 28 31 29 25 30 27 31 26 32 28 33 29 34 30 35
REMARK H PARENT 11 13 7 18 10 19
ROOT
ATOM      1  N   UNL     1      29.113  20.406 -19.768  1.00  0.00    -0.265 N 
ATOM      2  C   UNL     1      28.077  19.922 -20.554  1.00  0.00     0.230 C 
ATOM      3  N   UNL     1      28.357  19.612 -21.797  1.00  0.00    -0.213 NA
ATOM      4  C   UNL     1      27.337  19.188 -22.648  1.00  0.00     0.080 A 
ATOM      5  C   UNL     1      27.659  18.855 -23.968  1.00  0.00     0.029 A 
ATOM      6  C   UNL     1      26.671  18.427 -24.860  1.00  0.00     0.002 A 
ATOM      7  C   UNL     1      25.347  18.331 -24.438  1.00  0.00     0.001 A 
ATOM      8  C   UNL     1      25.014  18.664 -23.125  1.00  0.00     0.016 A 
ATOM      9  C   UNL     1      26.013  19.090 -22.238  1.00  0.00     0.066 A 
ATOM     10  C   UNL     1      25.700  19.420 -20.838  1.00  0.00     0.267 C 
ATOM     11  O   UNL     1      24.532  19.275 -20.470  1.00  0.00    -0.268 OA
ATOM     12  N   UNL     1      26.778  19.820 -20.030  1.00  0.00    -0.245 N 
ATOM     13  H   UNL     1      28.841  21.098 -19.061  1.00  0.00     0.191 HD
ENDROOT
BRANCH   1  14
ATOM     14  N   UNL     1      30.265  20.837 -20.493  1.00  0.00    -0.249 N 
ATOM     15  N   UNL     1      31.310  22.492 -21.673  1.00  0.00    -0.307 N 
ATOM     16  C   UNL     1      30.256  22.186 -20.839  1.00  0.00     0.337 C 
ATOM     17  O   UNL     1      29.406  22.951 -20.394  1.00  0.00    -0.247 OA
ATOM     18  H   UNL     1      31.980  21.749 -21.811  1.00  0.00     0.171 HD
ATOM     19  H   UNL     1      30.485  20.175 -21.240  1.00  0.00     0.193 HD
BRANCH  15  20
ATOM     20  C   UNL     1      31.645  23.747 -22.217  1.00  0.00     0.043 A 
ATOM     21  C   UNL     1      32.607  25.956 -21.807  1.00  0.00    -0.049 A 
ATOM     22  C   UNL     1      32.337  26.311 -23.132  1.00  0.00     0.003 A 
ATOM     23  C   UNL     1      32.250  24.675 -21.356  1.00  0.00     0.029 A 
ATOM     24  C   UNL     1      31.749  25.389 -23.998  1.00  0.00     0.002 A 
ATOM     25  C   UNL     1      31.407  24.111 -23.543  1.00  0.00     0.026 A 
ATOM     26  C   UNL     1      33.226  26.942 -20.859  1.00  0.00     0.044 C 
ENDBRANCH  15  20
ENDBRANCH   1  14
BRANCH  12  27
ATOM     27  C   UNL     1      26.511  20.074 -18.637  1.00  0.00     0.054 A 
ATOM     28  C   UNL     1      26.009  21.306 -18.212  1.00  0.00     0.027 A 
ATOM     29  C   UNL     1      26.754  19.083 -17.670  1.00  0.00     0.052 A 
ATOM     30  C   UNL     1      25.726  21.519 -16.866  1.00  0.00     0.004 A 
ATOM     31  C   UNL     1      26.496  19.267 -16.296  1.00  0.00     0.038 A 
ATOM     32  C   UNL     1      25.956  20.508 -15.928  1.00  0.00     0.026 A 
BRANCH  31  33
ATOM     33  N   UNL     1      26.728  18.235 -15.374  1.00  0.00    -0.378 N 
ATOM     34  C   UNL     1      25.741  17.979 -14.329  1.00  0.00     0.143 C 
ATOM     35  C   UNL     1      28.124  18.042 -14.967  1.00  0.00     0.143 C 
ENDBRANCH  31  33
ENDBRANCH  12  27
TORSDOF 4
ENDMDL
MODEL 2
REMARK VINA RESULT:    -6.275      3.452      6.571
REMARK INTER + INTRA:          -8.517
REMARK INTER:                  -7.824
REMARK INTRA:                  -0.693
REMARK UNBOUND:                -0.775
REMARK SMILES Cc1cccc(NC(=O)NNc2nc3ccccc3c(=O)n2-c2cccc(N(C)C)c2)c1
REMARK SMILES IDX 11 1 12 2 13 3 14 4 15 5 16 6 17 7 18 8 19 9 20 10 21 11
REMARK SMILES IDX 22 12 10 14 7 15 8 16 9 17 6 20 2 21 3 22 32 23 4 24 5 25
REMARK SMILES IDX 1 26 23 27 24 28 31 29 25 30 27 31 26 32 28 33 29 34 30 35
REMARK H PARENT 11 13 7 18 10 19
ROOT
ATOM      1  N   UNL     1      30.595  19.801 -22.526  1.00  0.00    -0.265 N 
ATOM      2  C   UNL     1      29.421  19.898 -21.792  1.00  0.00     0.230 C 
ATOM      3  N   UNL     1      28.465  19.045 -22.068  1.00  0.00    -0.213 NA
ATOM      4  C   UNL     1      27.240  19.145 -21.408  1.00  0.00     0.080 A 
ATOM      5  C   UNL     1      26.237  18.220 -21.712  1.00  0.00     0.029 A 
ATOM      6  C   UNL     1      24.991  18.281 -21.078  1.00  0.00     0.002 A 
ATOM      7  C   UNL     1      24.739  19.273 -20.134  1.00  0.00     0.001 A 
ATOM      8  C   UNL     1      25.732  20.203 -19.826  1.00  0.00     0.016 A 
ATOM      9  C   UNL     1      26.977  20.132 -20.466  1.00  0.00     0.066 A 
ATOM     10  C   UNL     1      28.056  21.079 -20.141  1.00  0.00     0.267 C 
ATOM     11  O   UNL     1      27.831  21.915 -19.263  1.00  0.00    -0.268 OA
ATOM     12  N   UNL     1      29.270  20.909 -20.828  1.00  0.00    -0.245 N 
ATOM     13  H   UNL     1      31.076  20.690 -22.704  1.00  0.00     0.191 HD
ENDROOT
BRANCH   1  14
ATOM     14  N   UNL     1      30.493  19.023 -23.719  1.00  0.00    -0.249 N 
ATOM     15  N   UNL     1      30.545  18.955 -26.003  1.00  0.00    -0.307 N 
ATOM     16  C   UNL     1      30.824  19.711 -24.884  1.00  0.00     0.337 C 
ATOM     17  O   UNL     1      31.324  20.831 -24.842  1.00  0.00    -0.247 OA
ATOM     18  H   UNL     1      30.265  18.002 -25.820  1.00  0.00     0.171 HD
ATOM     19  H   UNL     1      29.616  18.500 -23.730  1.00  0.00     0.193 HD
BRANCH  15  20
ATOM     20  C   UNL     1      30.758  19.298 -27.353  1.00  0.00     0.043 A 
ATOM     21  C   UNL     1      32.267  20.311 -28.986  1.00  0.00    -0.049 A 
ATOM     22  C   UNL     1      31.321  20.085 -29.989  1.00  0.00     0.003 A 
ATOM     23  C   UNL     1      31.974  19.922 -27.669  1.00  0.00     0.029 A 
ATOM     24  C   UNL     1      30.116  19.452 -29.685  1.00  0.00     0.002 A 
ATOM     25  C   UNL     1      29.837  19.057 -28.373  1.00  0.00     0.026 A 
ATOM     26  C   UNL     1      33.563  21.005 -29.294  1.00  0.00     0.044 C 
ENDBRANCH  15  20
ENDBRANCH   1  14
BRANCH  12  27
ATOM     27  C   UNL     1      30.366  21.774 -20.473  1.00  0.00     0.054 A 
ATOM     28  C   UNL     1      31.256  21.429 -19.454  1.00  0.00     0.027 A 
ATOM     29  C   UNL     1      30.563  22.993 -21.147  1.00  0.00     0.052 A 
ATOM     30  C   UNL     1      32.328  22.263 -19.150  1.00  0.00     0.004 A 
ATOM     31  C   UNL     1      31.627  23.871 -20.856  1.00  0.00     0.038 A 
ATOM     32  C   UNL     1      32.514  23.458 -19.850  1.00  0.00     0.026 A 
BRANCH  31  33
ATOM     33  N   UNL     1      31.797  25.063 -21.578  1.00  0.00    -0.378 N 
ATOM     34  C   UNL     1      32.623  26.125 -21.012  1.00  0.00     0.143 C 
ATOM     35  C   UNL     1      30.630  25.524 -22.337  1.00  0.00     0.143 C 
ENDBRANCH  31  33
ENDBRANCH  12  27
TORSDOF 4
ENDMDL
MODEL 3
REMARK VINA RESULT:    -6.265      2.060      7.892
REMARK INTER + INTRA:          -8.505
REMARK INTER:                  -7.663
REMARK INTRA:                  -0.843
REMARK UNBOUND:                -0.775
REMARK SMILES Cc1cccc(NC(=O)NNc2nc3ccccc3c(=O)n2-c2cccc(N(C)C)c2)c1
REMARK SMILES IDX 11 1 12 2 13 3 14 4 15 5 16 6 17 7 18 8 19 9 20 10 21 11
REMARK SMILES IDX 22 12 10 14 7 15 8 16 9 17 6 20 2 21 3 22 32 23 4 24 5 25
REMARK SMILES IDX 1 26 23 27 24 28 31 29 25 30 27 31 26 32 28 33 29 34 30 35
REMARK H PARENT 11 13 7 18 10 19
ROOT
ATOM      1  N   UNL     1      30.145  20.699 -20.287  1.00  0.00    -0.265 N 
ATOM      2  C   UNL     1      30.435  21.757 -21.137  1.00  0.00     0.230 C 
ATOM      3  N   UNL     1      31.085  22.777 -20.630  1.00  0.00    -0.213 NA
ATOM      4  C   UNL     1      31.339  23.895 -21.423  1.00  0.00     0.080 A 
ATOM      5  C   UNL     1      32.041  24.968 -20.865  1.00  0.00     0.029 A 
ATOM      6  C   UNL     1      32.318  26.113 -21.620  1.00  0.00     0.002 A 
ATOM      7  C   UNL     1      31.891  26.194 -22.943  1.00  0.00     0.001 A 
ATOM      8  C   UNL     1      31.187  25.130 -23.508  1.00  0.00     0.016 A 
ATOM      9  C   UNL     1      30.916  23.987 -22.743  1.00  0.00     0.066 A 
ATOM     10  C   UNL     1      30.202  22.836 -23.319  1.00  0.00     0.267 C 
ATOM     11  O   UNL     1      29.882  22.906 -24.508  1.00  0.00    -0.268 OA
ATOM     12  N   UNL     1      29.998  21.735 -22.471  1.00  0.00    -0.245 N 
ATOM     13  H   UNL     1      29.263  20.210 -20.480  1.00  0.00     0.191 HD
ENDROOT
BRANCH   1  14
ATOM     14  N   UNL     1      30.276  20.993 -18.896  1.00  0.00    -0.249 N 
ATOM     15  N   UNL     1      29.398  20.854 -16.790  1.00  0.00    -0.307 N 
ATOM     16  C   UNL     1      29.311  20.396 -18.088  1.00  0.00     0.337 C 
ATOM     17  O   UNL     1      28.538  19.555 -18.536  1.00  0.00    -0.247 OA
ATOM     18  H   UNL     1      30.195  21.443 -16.593  1.00  0.00     0.171 HD
ATOM     19  H   UNL     1      30.433  21.993 -18.756  1.00  0.00     0.193 HD
BRANCH  15  20
ATOM     20  C   UNL     1      28.612  20.473 -15.685  1.00  0.00     0.043 A 
ATOM     21  C   UNL     1      26.499  20.756 -14.491  1.00  0.00    -0.049 A 
ATOM     22  C   UNL     1      26.937  19.854 -13.517  1.00  0.00     0.003 A 
ATOM     23  C   UNL     1      27.346  21.066 -15.567  1.00  0.00     0.029 A 
ATOM     24  C   UNL     1      28.189  19.250 -13.635  1.00  0.00     0.002 A 
ATOM     25  C   UNL     1      29.021  19.556 -14.717  1.00  0.00     0.026 A 
ATOM     26  C   UNL     1      25.161  21.427 -14.370  1.00  0.00     0.044 C 
ENDBRANCH  15  20
ENDBRANCH   1  14
BRANCH  12  27
ATOM     27  C   UNL     1      29.370  20.566 -23.033  1.00  0.00     0.054 A 
ATOM     28  C   UNL     1      30.095  19.662 -23.813  1.00  0.00     0.027 A 
ATOM     29  C   UNL     1      28.005  20.309 -22.810  1.00  0.00     0.052 A 
ATOM     30  C   UNL     1      29.478  18.522 -24.318  1.00  0.00     0.004 A 
ATOM     31  C   UNL     1      27.342  19.174 -23.318  1.00  0.00     0.038 A 
ATOM     32  C   UNL     1      28.125  18.279 -24.062  1.00  0.00     0.026 A 
BRANCH  31  33
ATOM     33  N   UNL     1      25.984  18.948 -23.043  1.00  0.00    -0.378 N 
ATOM     34  C   UNL     1      25.115  18.451 -24.106  1.00  0.00     0.143 C 
ATOM     35  C   UNL     1      25.352  19.896 -22.119  1.00  0.00     0.143 C 
ENDBRANCH  31  33
ENDBRANCH  12  27
TORSDOF 4
ENDMDL
MODEL 4
REMARK VINA RESULT:    -6.047      2.558      4.128
REMARK INTER + INTRA:          -8.237
REMARK INTER:                  -7.917
REMARK INTRA:                  -0.320
REMARK UNBOUND:                -0.775
REMARK SMILES Cc1cccc(NC(=O)NNc2nc3ccccc3c(=O)n2-c2cccc(N(C)C)c2)c1
REMARK SMILES IDX 11 1 12 2 13 3 14 4 15 5 16 6 17 7 18 8 19 9 20 10 21 11
REMARK SMILES IDX 22 12 10 14 7 15 8 16 9 17 6 20 2 21 3 22 32 23 4 24 5 25
REMARK SMILES IDX 1 26 23 27 24 28 31 29 25 30 27 31 26 32 28 33 29 34 30 35
REMARK H PARENT 11 13 7 18 10 19
ROOT
ATOM      1  N   UNL     1      29.561  22.283 -22.694  1.00  0.00    -0.265 N 
ATOM      2  C   UNL     1      29.696  21.168 -23.510  1.00  0.00     0.230 C 
ATOM      3  N   UNL     1      30.675  21.173 -24.382  1.00  0.00    -0.213 NA
ATOM      4  C   UNL     1      30.811  20.108 -25.272  1.00  0.00     0.080 A 
ATOM      5  C   UNL     1      31.866  20.131 -26.189  1.00  0.00     0.029 A 
ATOM      6  C   UNL     1      32.043  19.087 -27.103  1.00  0.00     0.002 A 
ATOM      7  C   UNL     1      31.159  18.010 -27.108  1.00  0.00     0.001 A 
ATOM      8  C   UNL     1      30.101  17.980 -26.200  1.00  0.00     0.016 A 
ATOM      9  C   UNL     1      29.934  19.030 -25.287  1.00  0.00     0.066 A 
ATOM     10  C   UNL     1      28.846  19.014 -24.296  1.00  0.00     0.267 C 
ATOM     11  O   UNL     1      28.109  18.025 -24.281  1.00  0.00    -0.268 OA
ATOM     12  N   UNL     1      28.780  20.108 -23.417  1.00  0.00    -0.245 N 
ATOM     13  H   UNL     1      28.598  22.522 -22.433  1.00  0.00     0.191 HD
ENDROOT
BRANCH   1  14
ATOM     14  N   UNL     1      30.276  23.437 -23.135  1.00  0.00    -0.249 N 
ATOM     15  N   UNL     1      31.870  25.017 -22.703  1.00  0.00    -0.307 N 
ATOM     16  C   UNL     1      31.335  23.809 -22.309  1.00  0.00     0.337 C 
ATOM     17  O   UNL     1      31.707  23.088 -21.390  1.00  0.00    -0.247 OA
ATOM     18  H   UNL     1      31.511  25.386 -23.572  1.00  0.00     0.171 HD
ATOM     19  H   UNL     1      29.626  24.178 -23.406  1.00  0.00     0.193 HD
BRANCH  15  20
ATOM     20  C   UNL     1      32.958  25.707 -22.132  1.00  0.00     0.043 A 
ATOM     21  C   UNL     1      33.683  27.393 -20.517  1.00  0.00    -0.049 A 
ATOM     22  C   UNL     1      35.007  27.198 -20.922  1.00  0.00     0.003 A 
ATOM     23  C   UNL     1      32.664  26.648 -21.133  1.00  0.00     0.029 A 
ATOM     24  C   UNL     1      35.308  26.255 -21.903  1.00  0.00     0.002 A 
ATOM     25  C   UNL     1      34.288  25.510 -22.503  1.00  0.00     0.026 A 
ATOM     26  C   UNL     1      33.341  28.415 -19.472  1.00  0.00     0.044 C 
ENDBRANCH  15  20
ENDBRANCH   1  14
BRANCH  12  27
ATOM     27  C   UNL     1      27.771  20.078 -22.388  1.00  0.00     0.054 A 
ATOM     28  C   UNL     1      26.416  19.977 -22.710  1.00  0.00     0.027 A 
ATOM     29  C   UNL     1      28.131  20.154 -21.031  1.00  0.00     0.052 A 
ATOM     30  C   UNL     1      25.460  19.916 -21.700  1.00  0.00     0.004 A 
ATOM     31  C   UNL     1      27.191  20.112 -19.981  1.00  0.00     0.038 A 
ATOM     32  C   UNL     1      25.847  19.971 -20.358  1.00  0.00     0.026 A 
BRANCH  31  33
ATOM     33  N   UNL     1      27.603  20.162 -18.640  1.00  0.00    -0.378 N 
ATOM     34  C   UNL     1      27.353  19.012 -17.776  1.00  0.00     0.143 C 
ATOM     35  C   UNL     1      27.488  21.468 -17.983  1.00  0.00     0.143 C 
ENDBRANCH  31  33
ENDBRANCH  12  27
TORSDOF 4
ENDMDL
MODEL 5
REMARK VINA RESULT:    -5.990      4.150      9.012
REMARK INTER + INTRA:          -8.166
REMARK INTER:                  -7.283
REMARK INTRA:                  -0.882
REMARK UNBOUND:                -0.775
REMARK SMILES Cc1cccc(NC(=O)NNc2nc3ccccc3c(=O)n2-c2cccc(N(C)C)c2)c1
REMARK SMILES IDX 11 1 12 2 13 3 14 4 15 5 16 6 17 7 18 8 19 9 20 10 21 11
REMARK SMILES IDX 22 12 10 14 7 15 8 16 9 17 6 20 2 21 3 22 32 23 4 24 5 25
REMARK SMILES IDX 1 26 23 27 24 28 31 29 25 30 27 31 26 32 28 33 29 34 30 35
REMARK H PARENT 11 13 7 18 10 19
ROOT
ATOM      1  N   UNL     1      31.505  20.649 -23.854  1.00  0.00    -0.265 N 
ATOM      2  C   UNL     1      31.855  20.611 -25.197  1.00  0.00     0.230 C 
ATOM      3  N   UNL     1      31.009  20.049 -26.026  1.00  0.00    -0.213 NA
ATOM      4  C   UNL     1      31.345  19.923 -27.373  1.00  0.00     0.080 A 
ATOM      5  C   UNL     1      30.424  19.327 -28.241  1.00  0.00     0.029 A 
ATOM      6  C   UNL     1      30.716  19.176 -29.600  1.00  0.00     0.002 A 
ATOM      7  C   UNL     1      31.937  19.619 -30.103  1.00  0.00     0.001 A 
ATOM      8  C   UNL     1      32.864  20.211 -29.245  1.00  0.00     0.016 A 
ATOM      9  C   UNL     1      32.560  20.359 -27.885  1.00  0.00     0.066 A 
ATOM     10  C   UNL     1      33.504  21.007 -26.960  1.00  0.00     0.267 C 
ATOM     11  O   UNL     1      34.555  21.442 -27.435  1.00  0.00    -0.268 OA
ATOM     12  N   UNL     1      33.094  21.120 -25.620  1.00  0.00    -0.245 N 
ATOM     13  H   UNL     1      32.288  20.578 -23.195  1.00  0.00     0.191 HD
ENDROOT
BRANCH   1  14
ATOM     14  N   UNL     1      30.442  19.771 -23.487  1.00  0.00    -0.249 N 
ATOM     15  N   UNL     1      28.434  19.485 -22.433  1.00  0.00    -0.307 N 
ATOM     16  C   UNL     1      29.344  20.405 -22.910  1.00  0.00     0.337 C 
ATOM     17  O   UNL     1      29.253  21.628 -22.892  1.00  0.00    -0.247 OA
ATOM     18  H   UNL     1      28.628  18.523 -22.670  1.00  0.00     0.171 HD
ATOM     19  H   UNL     1      30.807  18.953 -22.996  1.00  0.00     0.193 HD
BRANCH  15  20
ATOM     20  C   UNL     1      27.198  19.739 -21.805  1.00  0.00     0.043 A 
ATOM     21  C   UNL     1      26.053  20.401 -19.750  1.00  0.00    -0.049 A 
ATOM     22  C   UNL     1      24.822  20.241 -20.394  1.00  0.00     0.003 A 
ATOM     23  C   UNL     1      27.235  20.140 -20.461  1.00  0.00     0.029 A 
ATOM     24  C   UNL     1      24.778  19.856 -21.734  1.00  0.00     0.002 A 
ATOM     25  C   UNL     1      25.962  19.609 -22.438  1.00  0.00     0.026 A 
ATOM     26  C   UNL     1      26.116  20.800 -18.304  1.00  0.00     0.044 C 
ENDBRANCH  15  20
ENDBRANCH   1  14
BRANCH  12  27
ATOM     27  C   UNL     1      33.966  21.819 -24.711  1.00  0.00     0.054 A 
ATOM     28  C   UNL     1      35.055  21.176 -24.118  1.00  0.00     0.027 A 
ATOM     29  C   UNL     1      33.737  23.171 -24.396  1.00  0.00     0.052 A 
ATOM     30  C   UNL     1      35.905  21.879 -23.270  1.00  0.00     0.004 A 
ATOM     31  C   UNL     1      34.566  23.910 -23.528  1.00  0.00     0.038 A 
ATOM     32  C   UNL     1      35.668  23.228 -22.991  1.00  0.00     0.026 A 
BRANCH  31  33
ATOM     33  N   UNL     1      34.312  25.266 -23.269  1.00  0.00    -0.378 N 
ATOM     34  C   UNL     1      34.934  25.897 -22.108  1.00  0.00     0.143 C 
ATOM     35  C   UNL     1      32.955  25.733 -23.574  1.00  0.00     0.143 C 
ENDBRANCH  31  33
ENDBRANCH  12  27
TORSDOF 4
ENDMDL
MODEL 6
REMARK VINA RESULT:    -5.753      2.124      7.476
REMARK INTER + INTRA:          -7.873
REMARK INTER:                  -7.176
REMARK INTRA:                  -0.697
REMARK UNBOUND:                -0.775
REMARK SMILES Cc1cccc(NC(=O)NNc2nc3ccccc3c(=O)n2-c2cccc(N(C)C)c2)c1
REMARK SMILES IDX 11 1 12 2 13 3 14 4 15 5 16 6 17 7 18 8 19 9 20 10 21 11
REMARK SMILES IDX 22 12 10 14 7 15 8 16 9 17 6 20 2 21 3 22 32 23 4 24 5 25
REMARK SMILES IDX 1 26 23 27 24 28 31 29 25 30 27 31 26 32 28 33 29 34 30 35
REMARK H PARENT 11 13 7 18 10 19
ROOT
ATOM      1  N   UNL     1      28.607  20.676 -20.042  1.00  0.00    -0.265 N 
ATOM      2  C   UNL     1      28.247  20.203 -21.297  1.00  0.00     0.230 C 
ATOM      3  N   UNL     1      27.053  19.675 -21.422  1.00  0.00    -0.213 NA
ATOM      4  C   UNL     1      26.670  19.122 -22.644  1.00  0.00     0.080 A 
ATOM      5  C   UNL     1      25.390  18.571 -22.758  1.00  0.00     0.029 A 
ATOM      6  C   UNL     1      24.960  18.003 -23.962  1.00  0.00     0.002 A 
ATOM      7  C   UNL     1      25.812  17.979 -25.064  1.00  0.00     0.001 A 
ATOM      8  C   UNL     1      27.093  18.523 -24.959  1.00  0.00     0.016 A 
ATOM      9  C   UNL     1      27.512  19.091 -23.748  1.00  0.00     0.066 A 
ATOM     10  C   UNL     1      28.846  19.701 -23.614  1.00  0.00     0.267 C 
ATOM     11  O   UNL     1      29.563  19.719 -24.617  1.00  0.00    -0.268 OA
ATOM     12  N   UNL     1      29.159  20.258 -22.363  1.00  0.00    -0.245 N 
ATOM     13  H   UNL     1      29.602  20.586 -19.809  1.00  0.00     0.191 HD
ENDROOT
BRANCH   1  14
ATOM     14  N   UNL     1      27.783  20.218 -18.970  1.00  0.00    -0.249 N 
ATOM     15  N   UNL     1      27.187  20.387 -16.770  1.00  0.00    -0.307 N 
ATOM     16  C   UNL     1      27.876  20.979 -17.807  1.00  0.00     0.337 C 
ATOM     17  O   UNL     1      28.485  22.044 -17.791  1.00  0.00    -0.247 OA
ATOM     18  H   UNL     1      26.634  19.581 -17.024  1.00  0.00     0.171 HD
ATOM     19  H   UNL     1      27.867  19.206 -18.862  1.00  0.00     0.193 HD
BRANCH  15  20
ATOM     20  C   UNL     1      27.034  20.861 -15.452  1.00  0.00     0.043 A 
ATOM     21  C   UNL     1      25.473  21.528 -13.693  1.00  0.00    -0.049 A 
ATOM     22  C   UNL     1      26.554  21.841 -12.864  1.00  0.00     0.003 A 
ATOM     23  C   UNL     1      25.722  21.046 -14.988  1.00  0.00     0.029 A 
ATOM     24  C   UNL     1      27.861  21.647 -13.313  1.00  0.00     0.002 A 
ATOM     25  C   UNL     1      28.099  21.156 -14.601  1.00  0.00     0.026 A 
ATOM     26  C   UNL     1      24.062  21.745 -13.230  1.00  0.00     0.044 C 
ENDBRANCH  15  20
ENDBRANCH   1  14
BRANCH  12  27
ATOM     27  C   UNL     1      30.428  20.928 -22.229  1.00  0.00     0.054 A 
ATOM     28  C   UNL     1      31.614  20.205 -22.084  1.00  0.00     0.027 A 
ATOM     29  C   UNL     1      30.499  22.333 -22.238  1.00  0.00     0.052 A 
ATOM     30  C   UNL     1      32.832  20.872 -21.991  1.00  0.00     0.004 A 
ATOM     31  C   UNL     1      31.712  23.043 -22.128  1.00  0.00     0.038 A 
ATOM     32  C   UNL     1      32.877  22.268 -22.025  1.00  0.00     0.026 A 
BRANCH  31  33
ATOM     33  N   UNL     1      31.733  24.446 -22.172  1.00  0.00    -0.378 N 
ATOM     34  C   UNL     1      32.768  25.165 -21.434  1.00  0.00     0.143 C 
ATOM     35  C   UNL     1      30.423  25.106 -22.204  1.00  0.00     0.143 C 
ENDBRANCH  31  33
ENDBRANCH  12  27
TORSDOF 4
ENDMDL
MODEL 7
REMARK VINA RESULT:    -5.703      3.180      9.787
REMARK INTER + INTRA:          -7.812
REMARK INTER:                  -6.912
REMARK INTRA:                  -0.900
REMARK UNBOUND:                -0.775
REMARK SMILES Cc1cccc(NC(=O)NNc2nc3ccccc3c(=O)n2-c2cccc(N(C)C)c2)c1
REMARK SMILES IDX 11 1 12 2 13 3 14 4 15 5 16 6 17 7 18 8 19 9 20 10 21 11
REMARK SMILES IDX 22 12 10 14 7 15 8 16 9 17 6 20 2 21 3 22 32 23 4 24 5 25
REMARK SMILES IDX 1 26 23 27 24 28 31 29 25 30 27 31 26 32 28 33 29 34 30 35
REMARK H PARENT 11 13 7 18 10 19
ROOT
ATOM      1  N   UNL     1      31.993  22.021 -21.310  1.00  0.00    -0.265 N 
ATOM      2  C   UNL     1      32.662  22.704 -20.304  1.00  0.00     0.230 C 
ATOM      3  N   UNL     1      32.668  22.164 -19.109  1.00  0.00    -0.213 NA
ATOM      4  C   UNL     1      33.266  22.844 -18.049  1.00  0.00     0.080 A 
ATOM      5  C   UNL     1      33.267  22.247 -16.784  1.00  0.00     0.029 A 
ATOM      6  C   UNL     1      33.853  22.890 -15.689  1.00  0.00     0.002 A 
ATOM      7  C   UNL     1      34.442  24.142 -15.851  1.00  0.00     0.001 A 
ATOM      8  C   UNL     1      34.442  24.749 -17.107  1.00  0.00     0.016 A 
ATOM      9  C   UNL     1      33.854  24.094 -18.198  1.00  0.00     0.066 A 
ATOM     10  C   UNL     1      33.865  24.693 -19.543  1.00  0.00     0.267 C 
ATOM     11  O   UNL     1      34.440  25.776 -19.675  1.00  0.00    -0.268 OA
ATOM     12  N   UNL     1      33.263  23.945 -20.569  1.00  0.00    -0.245 N 
ATOM     13  H   UNL     1      31.545  22.613 -22.019  1.00  0.00     0.191 HD
ENDROOT
BRANCH   1  14
ATOM     14  N   UNL     1      31.102  21.004 -20.853  1.00  0.00    -0.249 N 
ATOM     15  N   UNL     1      28.949  20.284 -20.588  1.00  0.00    -0.307 N 
ATOM     16  C   UNL     1      29.768  21.209 -21.198  1.00  0.00     0.337 C 
ATOM     17  O   UNL     1      29.443  22.100 -21.977  1.00  0.00    -0.247 OA
ATOM     18  H   UNL     1      29.427  19.544 -20.094  1.00  0.00     0.171 HD
ATOM     19  H   UNL     1      31.291  20.776 -19.876  1.00  0.00     0.193 HD
BRANCH  15  20
ATOM     20  C   UNL     1      27.551  20.156 -20.706  1.00  0.00     0.043 A 
ATOM     21  C   UNL     1      25.674  19.536 -22.143  1.00  0.00    -0.049 A 
ATOM     22  C   UNL     1      24.787  19.884 -21.121  1.00  0.00     0.003 A 
ATOM     23  C   UNL     1      27.054  19.683 -21.930  1.00  0.00     0.029 A 
ATOM     24  C   UNL     1      25.273  20.341 -19.896  1.00  0.00     0.002 A 
ATOM     25  C   UNL     1      26.650  20.473 -19.689  1.00  0.00     0.026 A 
ATOM     26  C   UNL     1      25.165  19.057 -23.472  1.00  0.00     0.044 C 
ENDBRANCH  15  20
ENDBRANCH   1  14
BRANCH  12  27
ATOM     27  C   UNL     1      33.329  24.474 -21.908  1.00  0.00     0.054 A 
ATOM     28  C   UNL     1      32.282  25.233 -22.436  1.00  0.00     0.027 A 
ATOM     29  C   UNL     1      34.454  24.235 -22.718  1.00  0.00     0.052 A 
ATOM     30  C   UNL     1      32.380  25.763 -23.719  1.00  0.00     0.004 A 
ATOM     31  C   UNL     1      34.582  24.741 -24.027  1.00  0.00     0.038 A 
ATOM     32  C   UNL     1      33.519  25.528 -24.494  1.00  0.00     0.026 A 
BRANCH  31  33
ATOM     33  N   UNL     1      35.739  24.497 -24.785  1.00  0.00    -0.378 N 
ATOM     34  C   UNL     1      35.605  23.937 -26.127  1.00  0.00     0.143 C 
ATOM     35  C   UNL     1      36.910  24.035 -24.034  1.00  0.00     0.143 C 
ENDBRANCH  31  33
ENDBRANCH  12  27
TORSDOF 4
ENDMDL
MODEL 8
REMARK VINA RESULT:    -5.690      3.977      9.907
REMARK INTER + INTRA:          -7.796
REMARK INTER:                  -6.962
REMARK INTRA:                  -0.834
REMARK UNBOUND:                -0.775
REMARK SMILES Cc1cccc(NC(=O)NNc2nc3ccccc3c(=O)n2-c2cccc(N(C)C)c2)c1
REMARK SMILES IDX 11 1 12 2 13 3 14 4 15 5 16 6 17 7 18 8 19 9 20 10 21 11
REMARK SMILES IDX 22 12 10 14 7 15 8 16 9 17 6 20 2 21 3 22 32 23 4 24 5 25
REMARK SMILES IDX 1 26 23 27 24 28 31 29 25 30 27 31 26 32 28 33 29 34 30 35
REMARK H PARENT 11 13 7 18 10 19
ROOT
ATOM      1  N   UNL     1      30.681  20.736 -24.447  1.00  0.00    -0.265 N 
ATOM      2  C   UNL     1      31.429  21.838 -24.058  1.00  0.00     0.230 C 
ATOM      3  N   UNL     1      30.823  22.758 -23.347  1.00  0.00    -0.213 NA
ATOM      4  C   UNL     1      31.511  23.918 -22.991  1.00  0.00     0.080 A 
ATOM      5  C   UNL     1      30.848  24.883 -22.226  1.00  0.00     0.029 A 
ATOM      6  C   UNL     1      31.495  26.063 -21.845  1.00  0.00     0.002 A 
ATOM      7  C   UNL     1      32.814  26.289 -22.232  1.00  0.00     0.001 A 
ATOM      8  C   UNL     1      33.483  25.335 -22.999  1.00  0.00     0.016 A 
ATOM      9  C   UNL     1      32.826  24.155 -23.373  1.00  0.00     0.066 A 
ATOM     10  C   UNL     1      33.513  23.115 -24.156  1.00  0.00     0.267 C 
ATOM     11  O   UNL     1      34.697  23.310 -24.440  1.00  0.00    -0.268 OA
ATOM     12  N   UNL     1      32.769  21.963 -24.462  1.00  0.00    -0.245 N 
ATOM     13  H   UNL     1      30.932  20.334 -25.358  1.00  0.00     0.191 HD
ENDROOT
BRANCH   1  14
ATOM     14  N   UNL     1      29.268  20.899 -24.330  1.00  0.00    -0.249 N 
ATOM     15  N   UNL     1      27.310  20.236 -23.354  1.00  0.00    -0.307 N 
ATOM     16  C   UNL     1      28.686  20.159 -23.303  1.00  0.00     0.337 C 
ATOM     17  O   UNL     1      29.374  19.567 -22.478  1.00  0.00    -0.247 OA
ATOM     18  H   UNL     1      26.939  20.890 -24.028  1.00  0.00     0.171 HD
ATOM     19  H   UNL     1      28.823  20.835 -25.247  1.00  0.00     0.193 HD
BRANCH  15  20
ATOM     20  C   UNL     1      26.379  19.643 -22.479  1.00  0.00     0.043 A 
ATOM     21  C   UNL     1      25.337  19.694 -20.269  1.00  0.00    -0.049 A 
ATOM     22  C   UNL     1      24.596  18.556 -20.601  1.00  0.00     0.003 A 
ATOM     23  C   UNL     1      26.232  20.225 -21.211  1.00  0.00     0.029 A 
ATOM     24  C   UNL     1      24.726  17.979 -21.864  1.00  0.00     0.002 A 
ATOM     25  C   UNL     1      25.612  18.523 -22.800  1.00  0.00     0.026 A 
ATOM     26  C   UNL     1      25.219  20.317 -18.908  1.00  0.00     0.044 C 
ENDBRANCH  15  20
ENDBRANCH   1  14
BRANCH  12  27
ATOM     27  C   UNL     1      33.442  20.898 -25.161  1.00  0.00     0.054 A 
ATOM     28  C   UNL     1      34.100  19.882 -24.464  1.00  0.00     0.027 A 
ATOM     29  C   UNL     1      33.454  20.859 -26.567  1.00  0.00     0.052 A 
ATOM     30  C   UNL     1      34.716  18.844 -25.158  1.00  0.00     0.004 A 
ATOM     31  C   UNL     1      34.080  19.834 -27.303  1.00  0.00     0.038 A 
ATOM     32  C   UNL     1      34.693  18.818 -26.555  1.00  0.00     0.026 A 
BRANCH  31  33
ATOM     33  N   UNL     1      34.039  19.825 -28.707  1.00  0.00    -0.378 N 
ATOM     34  C   UNL     1      33.283  20.863 -29.402  1.00  0.00     0.143 C 
ATOM     35  C   UNL     1      33.999  18.502 -29.338  1.00  0.00     0.143 C 
ENDBRANCH  31  33
ENDBRANCH  12  27
TORSDOF 4
ENDMDL
MODEL 9
REMARK VINA RESULT:    -5.688      2.659      4.124
REMARK INTER + INTRA:          -7.794
REMARK INTER:                  -6.974
REMARK INTRA:                  -0.820
REMARK UNBOUND:                -0.775
REMARK SMILES Cc1cccc(NC(=O)NNc2nc3ccccc3c(=O)n2-c2cccc(N(C)C)c2)c1
REMARK SMILES IDX 11 1 12 2 13 3 14 4 15 5 16 6 17 7 18 8 19 9 20 10 21 11
REMARK SMILES IDX 22 12 10 14 7 15 8 16 9 17 6 20 2 21 3 22 32 23 4 24 5 25
REMARK SMILES IDX 1 26 23 27 24 28 31 29 25 30 27 31 26 32 28 33 29 34 30 35
REMARK H PARENT 11 13 7 18 10 19
ROOT
ATOM      1  N   UNL     1      30.761  22.958 -20.776  1.00  0.00    -0.265 N 
ATOM      2  C   UNL     1      30.557  21.898 -21.649  1.00  0.00     0.230 C 
ATOM      3  N   UNL     1      31.098  21.985 -22.841  1.00  0.00    -0.213 NA
ATOM      4  C   UNL     1      30.864  20.980 -23.779  1.00  0.00     0.080 A 
ATOM      5  C   UNL     1      31.457  21.090 -25.041  1.00  0.00     0.029 A 
ATOM      6  C   UNL     1      31.251  20.109 -26.016  1.00  0.00     0.002 A 
ATOM      7  C   UNL     1      30.444  19.008 -25.736  1.00  0.00     0.001 A 
ATOM      8  C   UNL     1      29.845  18.892 -24.482  1.00  0.00     0.016 A 
ATOM      9  C   UNL     1      30.060  19.880 -23.511  1.00  0.00     0.066 A 
ATOM     10  C   UNL     1      29.467  19.771 -22.168  1.00  0.00     0.267 C 
ATOM     11  O   UNL     1      28.802  18.762 -21.923  1.00  0.00    -0.268 OA
ATOM     12  N   UNL     1      29.760  20.808 -21.266  1.00  0.00    -0.245 N 
ATOM     13  H   UNL     1      29.986  23.151 -20.133  1.00  0.00     0.191 HD
ENDROOT
BRANCH   1  14
ATOM     14  N   UNL     1      31.233  24.157 -21.389  1.00  0.00    -0.249 N 
ATOM     15  N   UNL     1      32.619  25.972 -21.294  1.00  0.00    -0.307 N 
ATOM     16  C   UNL     1      32.325  24.740 -20.750  1.00  0.00     0.337 C 
ATOM     17  O   UNL     1      32.918  24.157 -19.848  1.00  0.00    -0.247 OA
ATOM     18  H   UNL     1      32.098  26.212 -22.125  1.00  0.00     0.171 HD
ATOM     19  H   UNL     1      30.451  24.776 -21.612  1.00  0.00     0.193 HD
BRANCH  15  20
ATOM     20  C   UNL     1      33.659  26.851 -20.931  1.00  0.00     0.043 A 
ATOM     21  C   UNL     1      34.346  28.725 -19.522  1.00  0.00    -0.049 A 
ATOM     22  C   UNL     1      35.608  28.704 -20.123  1.00  0.00     0.003 A 
ATOM     23  C   UNL     1      33.375  27.800 -19.938  1.00  0.00     0.029 A 
ATOM     24  C   UNL     1      35.902  27.754 -21.101  1.00  0.00     0.002 A 
ATOM     25  C   UNL     1      34.932  26.829 -21.501  1.00  0.00     0.026 A 
ATOM     26  C   UNL     1      34.009  29.752 -18.478  1.00  0.00     0.044 C 
ENDBRANCH  15  20
ENDBRANCH   1  14
BRANCH  12  27
ATOM     27  C   UNL     1      29.255  20.686 -19.922  1.00  0.00     0.054 A 
ATOM     28  C   UNL     1      30.083  20.277 -18.874  1.00  0.00     0.027 A 
ATOM     29  C   UNL     1      27.909  20.976 -19.634  1.00  0.00     0.052 A 
ATOM     30  C   UNL     1      29.583  20.199 -17.578  1.00  0.00     0.004 A 
ATOM     31  C   UNL     1      27.363  20.892 -18.337  1.00  0.00     0.038 A 
ATOM     32  C   UNL     1      28.247  20.514 -17.315  1.00  0.00     0.026 A 
BRANCH  31  33
ATOM     33  N   UNL     1      26.020  21.221 -18.096  1.00  0.00    -0.378 N 
ATOM     34  C   UNL     1      25.557  21.361 -16.718  1.00  0.00     0.143 C 
ATOM     35  C   UNL     1      25.042  20.637 -19.021  1.00  0.00     0.143 C 
ENDBRANCH  31  33
ENDBRANCH  12  27
TORSDOF 4
ENDMDL
