MODEL 1
REMARK VINA RESULT:    -6.331      0.000      0.000
REMARK INTER + INTRA:         -11.327
REMARK INTER:                  -8.922
REMARK INTRA:                  -2.406
REMARK UNBOUND:                -2.406
REMARK SMILES CC1=C(C(=O)NCCC[NH+]2CCC(c3ccccc3C#N)CC2)C(c2ccc(F)c(F)c2)NC(=O)N1
REMARK SMILES IDX 7 1 6 2 4 3 5 4 3 6 2 7 36 8 24 9 34 10 33 11 35 12 1 13
REMARK SMILES IDX 25 16 26 17 32 18 27 19 30 20 28 21 31 22 29 23 8 24 9 25
REMARK SMILES IDX 10 26 11 27 23 28 12 29 22 30 13 31 14 33 15 34 19 35 16 36
REMARK SMILES IDX 18 37 20 38 17 39 21 40
REMARK H PARENT 6 5 36 14 33 15 10 32
ROOT
ATOM      1  C   UNL     1      34.541  22.338 -24.514  1.00  0.00     0.122 C 
ENDROOT
BRANCH   1   2
ATOM      2  N   UNL     1      34.397  23.318 -23.454  1.00  0.00    -0.352 N 
ATOM      3  C   UNL     1      34.195  24.646 -23.710  1.00  0.00     0.251 C 
ATOM      4  O   UNL     1      34.257  25.108 -24.847  1.00  0.00    -0.270 OA
ATOM      5  H   UNL     1      34.374  22.977 -22.497  1.00  0.00     0.163 HD
BRANCH   3   6
ATOM      6  C   UNL     1      33.954  25.502 -22.530  1.00  0.00     0.063 C 
ATOM      7  C   UNL     1      34.979  26.159 -21.953  1.00  0.00     0.028 C 
ATOM      8  N   UNL     1      34.688  27.040 -20.936  1.00  0.00    -0.311 N 
ATOM      9  C   UNL     1      32.528  25.694 -22.085  1.00  0.00     0.152 C 
ATOM     10  C   UNL     1      33.436  27.417 -20.550  1.00  0.00     0.319 C 
ATOM     11  N   UNL     1      32.403  26.851 -21.224  1.00  0.00    -0.327 N 
ATOM     12  O   UNL     1      33.251  28.240 -19.662  1.00  0.00    -0.248 OA
ATOM     13  C   UNL     1      36.435  26.025 -22.295  1.00  0.00     0.065 C 
ATOM     14  H   UNL     1      35.432  27.532 -20.447  1.00  0.00     0.171 HD
ATOM     15  H   UNL     1      31.488  27.111 -20.873  1.00  0.00     0.166 HD
BRANCH   9  16
ATOM     16  C   UNL     1      31.931  24.482 -21.376  1.00  0.00    -0.018 A 
ATOM     17  C   UNL     1      30.621  24.062 -21.680  1.00  0.00     0.009 A 
ATOM     18  C   UNL     1      32.644  23.790 -20.380  1.00  0.00     0.048 A 
ATOM     19  C   UNL     1      30.050  22.972 -21.013  1.00  0.00     0.043 A 
ATOM     20  C   UNL     1      32.071  22.701 -19.730  1.00  0.00     0.159 A 
ATOM     21  C   UNL     1      30.781  22.295 -20.045  1.00  0.00     0.158 A 
ATOM     22  F   UNL     1      32.785  22.038 -18.810  1.00  0.00    -0.204 F 
ATOM     23  F   UNL     1      30.230  21.252 -19.414  1.00  0.00    -0.204 F 
ENDBRANCH   9  16
ENDBRANCH   3   6
ENDBRANCH   1   2
BRANCH   1  24
ATOM     24  C   UNL     1      33.210  21.675 -24.892  1.00  0.00     0.083 C 
BRANCH  24  25
ATOM     25  C   UNL     1      32.906  20.415 -24.079  1.00  0.00     0.264 C 
BRANCH  25  26
ATOM     26  N   UNL     1      31.557  20.487 -23.396  1.00  0.00    -0.335 N 
ATOM     27  C   UNL     1      31.193  19.179 -22.734  1.00  0.00     0.262 C 
ATOM     28  C   UNL     1      30.468  20.996 -24.310  1.00  0.00     0.262 C 
ATOM     29  C   UNL     1      29.883  19.324 -21.971  1.00  0.00     0.070 C 
ATOM     30  C   UNL     1      29.160  21.132 -23.543  1.00  0.00     0.070 C 
ATOM     31  C   UNL     1      28.757  19.795 -22.902  1.00  0.00     0.032 C 
ATOM     32  H   UNL     1      31.635  21.177 -22.615  1.00  0.00     0.348 HD
BRANCH  31  33
ATOM     33  C   UNL     1      27.408  19.787 -22.186  1.00  0.00    -0.027 A 
ATOM     34  C   UNL     1      27.274  20.244 -20.865  1.00  0.00     0.005 A 
ATOM     35  C   UNL     1      26.248  19.290 -22.839  1.00  0.00     0.055 A 
ATOM     36  C   UNL     1      26.030  20.238 -20.227  1.00  0.00     0.000 A 
ATOM     37  C   UNL     1      25.006  19.287 -22.191  1.00  0.00     0.020 A 
ATOM     38  C   UNL     1      26.327  18.759 -24.173  1.00  0.00     0.099 C 
ATOM     39  C   UNL     1      24.899  19.766 -20.888  1.00  0.00     0.001 A 
ATOM     40  N   UNL     1      26.509  18.334 -25.238  1.00  0.00    -0.192 NA
ENDBRANCH  31  33
ENDBRANCH  25  26
ENDBRANCH  24  25
ENDBRANCH   1  24
TORSDOF 7
ENDMDL
MODEL 2
REMARK VINA RESULT:    -6.251      3.382      5.217
REMARK INTER + INTRA:         -11.214
REMARK INTER:                  -9.796
REMARK INTRA:                  -1.419
REMARK UNBOUND:                -2.406
REMARK SMILES CC1=C(C(=O)NCCC[NH+]2CCC(c3ccccc3C#N)CC2)C(c2ccc(F)c(F)c2)NC(=O)N1
REMARK SMILES IDX 7 1 6 2 4 3 5 4 3 6 2 7 36 8 24 9 34 10 33 11 35 12 1 13
REMARK SMILES IDX 25 16 26 17 32 18 27 19 30 20 28 21 31 22 29 23 8 24 9 25
REMARK SMILES IDX 10 26 11 27 23 28 12 29 22 30 13 31 14 33 15 34 19 35 16 36
REMARK SMILES IDX 18 37 20 38 17 39 21 40
REMARK H PARENT 6 5 36 14 33 15 10 32
ROOT
ATOM      1  C   UNL     1      33.440  23.055 -17.597  1.00  0.00     0.122 C 
ENDROOT
BRANCH   1   2
ATOM      2  N   UNL     1      33.076  23.825 -18.771  1.00  0.00    -0.352 N 
ATOM      3  C   UNL     1      33.982  24.147 -19.743  1.00  0.00     0.251 C 
ATOM      4  O   UNL     1      35.183  23.919 -19.618  1.00  0.00    -0.270 OA
ATOM      5  H   UNL     1      32.094  24.061 -18.894  1.00  0.00     0.163 HD
BRANCH   3   6
ATOM      6  C   UNL     1      33.437  24.837 -20.931  1.00  0.00     0.063 C 
ATOM      7  C   UNL     1      33.439  24.221 -22.129  1.00  0.00     0.028 C 
ATOM      8  N   UNL     1      32.811  24.851 -23.179  1.00  0.00    -0.311 N 
ATOM      9  C   UNL     1      32.789  26.181 -20.723  1.00  0.00     0.152 C 
ATOM     10  C   UNL     1      32.058  25.985 -23.084  1.00  0.00     0.319 C 
ATOM     11  N   UNL     1      31.948  26.533 -21.848  1.00  0.00    -0.327 N 
ATOM     12  O   UNL     1      31.491  26.469 -24.056  1.00  0.00    -0.248 OA
ATOM     13  C   UNL     1      34.076  22.901 -22.456  1.00  0.00     0.065 C 
ATOM     14  H   UNL     1      32.817  24.441 -24.109  1.00  0.00     0.171 HD
ATOM     15  H   UNL     1      31.430  27.403 -21.826  1.00  0.00     0.166 HD
BRANCH   9  16
ATOM     16  C   UNL     1      33.778  27.314 -20.470  1.00  0.00    -0.018 A 
ATOM     17  C   UNL     1      33.438  28.366 -19.596  1.00  0.00     0.009 A 
ATOM     18  C   UNL     1      35.020  27.364 -21.130  1.00  0.00     0.048 A 
ATOM     19  C   UNL     1      34.323  29.428 -19.381  1.00  0.00     0.043 A 
ATOM     20  C   UNL     1      35.898  28.420 -20.901  1.00  0.00     0.159 A 
ATOM     21  C   UNL     1      35.551  29.446 -20.032  1.00  0.00     0.158 A 
ATOM     22  F   UNL     1      37.089  28.426 -21.514  1.00  0.00    -0.204 F 
ATOM     23  F   UNL     1      36.393  30.463 -19.819  1.00  0.00    -0.204 F 
ENDBRANCH   9  16
ENDBRANCH   3   6
ENDBRANCH   1   2
BRANCH   1  24
ATOM     24  C   UNL     1      32.442  21.929 -17.296  1.00  0.00     0.083 C 
BRANCH  24  25
ATOM     25  C   UNL     1      32.610  20.709 -18.203  1.00  0.00     0.264 C 
BRANCH  25  26
ATOM     26  N   UNL     1      31.336  20.370 -18.948  1.00  0.00    -0.335 N 
ATOM     27  C   UNL     1      30.763  21.575 -19.656  1.00  0.00     0.262 C 
ATOM     28  C   UNL     1      30.320  19.673 -18.076  1.00  0.00     0.262 C 
ATOM     29  C   UNL     1      29.546  21.171 -20.477  1.00  0.00     0.070 C 
ATOM     30  C   UNL     1      29.103  19.278 -18.902  1.00  0.00     0.070 C 
ATOM     31  C   UNL     1      28.485  20.505 -19.591  1.00  0.00     0.032 C 
ATOM     32  H   UNL     1      31.585  19.698 -19.709  1.00  0.00     0.348 HD
BRANCH  31  33
ATOM     33  C   UNL     1      27.198  20.243 -20.370  1.00  0.00    -0.027 A 
ATOM     34  C   UNL     1      27.222  19.826 -21.711  1.00  0.00     0.005 A 
ATOM     35  C   UNL     1      25.931  20.441 -19.758  1.00  0.00     0.055 A 
ATOM     36  C   UNL     1      26.034  19.583 -22.408  1.00  0.00     0.000 A 
ATOM     37  C   UNL     1      24.747  20.197 -20.464  1.00  0.00     0.020 A 
ATOM     38  C   UNL     1      25.836  20.919 -18.405  1.00  0.00     0.099 C 
ATOM     39  C   UNL     1      24.801  19.763 -21.787  1.00  0.00     0.001 A 
ATOM     40  N   UNL     1      25.876  21.327 -17.318  1.00  0.00    -0.192 NA
ENDBRANCH  31  33
ENDBRANCH  25  26
ENDBRANCH  24  25
ENDBRANCH   1  24
TORSDOF 7
ENDMDL
MODEL 3
REMARK VINA RESULT:    -6.182      3.015      4.823
REMARK INTER + INTRA:         -11.118
REMARK INTER:                  -9.711
REMARK INTRA:                  -1.407
REMARK UNBOUND:                -2.406
REMARK SMILES CC1=C(C(=O)NCCC[NH+]2CCC(c3ccccc3C#N)CC2)C(c2ccc(F)c(F)c2)NC(=O)N1
REMARK SMILES IDX 7 1 6 2 4 3 5 4 3 6 2 7 36 8 24 9 34 10 33 11 35 12 1 13
REMARK SMILES IDX 25 16 26 17 32 18 27 19 30 20 28 21 31 22 29 23 8 24 9 25
REMARK SMILES IDX 10 26 11 27 23 28 12 29 22 30 13 31 14 33 15 34 19 35 16 36
REMARK SMILES IDX 18 37 20 38 17 39 21 40
REMARK H PARENT 6 5 36 14 33 15 10 32
ROOT
ATOM      1  C   UNL     1      33.069  22.307 -18.463  1.00  0.00     0.122 C 
ENDROOT
BRANCH   1   2
ATOM      2  N   UNL     1      32.725  23.230 -19.528  1.00  0.00    -0.352 N 
ATOM      3  C   UNL     1      33.674  23.868 -20.278  1.00  0.00     0.251 C 
ATOM      4  O   UNL     1      34.871  23.802 -20.008  1.00  0.00    -0.270 OA
ATOM      5  H   UNL     1      31.740  23.336 -19.760  1.00  0.00     0.163 HD
BRANCH   3   6
ATOM      6  C   UNL     1      33.169  24.687 -21.398  1.00  0.00     0.063 C 
ATOM      7  C   UNL     1      33.150  24.184 -22.647  1.00  0.00     0.028 C 
ATOM      8  N   UNL     1      32.557  24.936 -23.637  1.00  0.00    -0.311 N 
ATOM      9  C   UNL     1      32.582  26.036 -21.070  1.00  0.00     0.152 C 
ATOM     10  C   UNL     1      31.857  26.090 -23.440  1.00  0.00     0.319 C 
ATOM     11  N   UNL     1      31.765  26.528 -22.159  1.00  0.00    -0.327 N 
ATOM     12  O   UNL     1      31.319  26.687 -24.364  1.00  0.00    -0.248 OA
ATOM     13  C   UNL     1      33.727  22.871 -23.092  1.00  0.00     0.065 C 
ATOM     14  H   UNL     1      32.550  24.613 -24.601  1.00  0.00     0.171 HD
ATOM     15  H   UNL     1      31.288  27.416 -22.058  1.00  0.00     0.166 HD
BRANCH   9  16
ATOM     16  C   UNL     1      33.621  27.094 -20.712  1.00  0.00    -0.018 A 
ATOM     17  C   UNL     1      33.288  28.139 -19.827  1.00  0.00     0.009 A 
ATOM     18  C   UNL     1      34.906  27.083 -21.286  1.00  0.00     0.048 A 
ATOM     19  C   UNL     1      34.222  29.133 -19.517  1.00  0.00     0.043 A 
ATOM     20  C   UNL     1      35.831  28.072 -20.962  1.00  0.00     0.159 A 
ATOM     21  C   UNL     1      35.490  29.092 -20.083  1.00  0.00     0.158 A 
ATOM     22  F   UNL     1      37.059  28.019 -21.495  1.00  0.00    -0.204 F 
ATOM     23  F   UNL     1      36.378  30.044 -19.780  1.00  0.00    -0.204 F 
ENDBRANCH   9  16
ENDBRANCH   3   6
ENDBRANCH   1   2
BRANCH   1  24
ATOM     24  C   UNL     1      32.405  20.934 -18.632  1.00  0.00     0.083 C 
BRANCH  24  25
ATOM     25  C   UNL     1      30.890  20.962 -18.420  1.00  0.00     0.264 C 
BRANCH  25  26
ATOM     26  N   UNL     1      30.140  20.324 -19.570  1.00  0.00    -0.335 N 
ATOM     27  C   UNL     1      29.971  21.279 -20.728  1.00  0.00     0.262 C 
ATOM     28  C   UNL     1      28.835  19.699 -19.138  1.00  0.00     0.262 C 
ATOM     29  C   UNL     1      29.308  20.569 -21.900  1.00  0.00     0.070 C 
ATOM     30  C   UNL     1      28.174  18.997 -20.317  1.00  0.00     0.070 C 
ATOM     31  C   UNL     1      27.956  19.971 -21.485  1.00  0.00     0.032 C 
ATOM     32  H   UNL     1      30.732  19.547 -19.940  1.00  0.00     0.348 HD
BRANCH  31  33
ATOM     33  C   UNL     1      27.210  19.399 -22.689  1.00  0.00    -0.027 A 
ATOM     34  C   UNL     1      27.893  18.941 -23.827  1.00  0.00     0.005 A 
ATOM     35  C   UNL     1      25.791  19.339 -22.695  1.00  0.00     0.055 A 
ATOM     36  C   UNL     1      27.195  18.413 -24.917  1.00  0.00     0.000 A 
ATOM     37  C   UNL     1      25.101  18.810 -23.793  1.00  0.00     0.020 A 
ATOM     38  C   UNL     1      25.029  19.842 -21.584  1.00  0.00     0.099 C 
ATOM     39  C   UNL     1      25.805  18.343 -24.900  1.00  0.00     0.001 A 
ATOM     40  N   UNL     1      24.515  20.295 -20.646  1.00  0.00    -0.192 NA
ENDBRANCH  31  33
ENDBRANCH  25  26
ENDBRANCH  24  25
ENDBRANCH   1  24
TORSDOF 7
ENDMDL
MODEL 4
REMARK VINA RESULT:    -5.995      3.267      4.648
REMARK INTER + INTRA:         -10.854
REMARK INTER:                  -9.407
REMARK INTRA:                  -1.448
REMARK UNBOUND:                -2.406
REMARK SMILES CC1=C(C(=O)NCCC[NH+]2CCC(c3ccccc3C#N)CC2)C(c2ccc(F)c(F)c2)NC(=O)N1
REMARK SMILES IDX 7 1 6 2 4 3 5 4 3 6 2 7 36 8 24 9 34 10 33 11 35 12 1 13
REMARK SMILES IDX 25 16 26 17 32 18 27 19 30 20 28 21 31 22 29 23 8 24 9 25
REMARK SMILES IDX 10 26 11 27 23 28 12 29 22 30 13 31 14 33 15 34 19 35 16 36
REMARK SMILES IDX 18 37 20 38 17 39 21 40
REMARK H PARENT 6 5 36 14 33 15 10 32
ROOT
ATOM      1  C   UNL     1      34.169  23.115 -18.150  1.00  0.00     0.122 C 
ENDROOT
BRANCH   1   2
ATOM      2  N   UNL     1      34.177  24.500 -18.579  1.00  0.00    -0.352 N 
ATOM      3  C   UNL     1      35.337  25.194 -18.787  1.00  0.00     0.251 C 
ATOM      4  O   UNL     1      36.436  24.729 -18.495  1.00  0.00    -0.270 OA
ATOM      5  H   UNL     1      33.282  24.931 -18.799  1.00  0.00     0.163 HD
BRANCH   3   6
ATOM      6  C   UNL     1      35.184  26.559 -19.331  1.00  0.00     0.063 C 
ATOM      7  C   UNL     1      34.935  27.592 -18.502  1.00  0.00     0.028 C 
ATOM      8  N   UNL     1      34.925  28.860 -19.038  1.00  0.00    -0.311 N 
ATOM      9  C   UNL     1      35.431  26.757 -20.804  1.00  0.00     0.152 C 
ATOM     10  C   UNL     1      35.286  29.183 -20.313  1.00  0.00     0.319 C 
ATOM     11  N   UNL     1      35.664  28.153 -21.110  1.00  0.00    -0.327 N 
ATOM     12  O   UNL     1      35.292  30.341 -20.711  1.00  0.00    -0.248 OA
ATOM     13  C   UNL     1      34.649  27.510 -17.030  1.00  0.00     0.065 C 
ATOM     14  H   UNL     1      34.707  29.666 -18.458  1.00  0.00     0.171 HD
ATOM     15  H   UNL     1      35.870  28.422 -22.065  1.00  0.00     0.166 HD
BRANCH   9  16
ATOM     16  C   UNL     1      34.309  26.234 -21.696  1.00  0.00    -0.018 A 
ATOM     17  C   UNL     1      34.617  25.547 -22.887  1.00  0.00     0.009 A 
ATOM     18  C   UNL     1      32.957  26.462 -21.382  1.00  0.00     0.048 A 
ATOM     19  C   UNL     1      33.598  25.092 -23.730  1.00  0.00     0.043 A 
ATOM     20  C   UNL     1      31.949  25.996 -22.223  1.00  0.00     0.159 A 
ATOM     21  C   UNL     1      32.269  25.315 -23.390  1.00  0.00     0.158 A 
ATOM     22  F   UNL     1      30.669  26.196 -21.883  1.00  0.00    -0.204 F 
ATOM     23  F   UNL     1      31.300  24.875 -24.199  1.00  0.00    -0.204 F 
ENDBRANCH   9  16
ENDBRANCH   3   6
ENDBRANCH   1   2
BRANCH   1  24
ATOM     24  C   UNL     1      32.752  22.575 -17.919  1.00  0.00     0.083 C 
BRANCH  24  25
ATOM     25  C   UNL     1      32.646  21.056 -18.076  1.00  0.00     0.264 C 
BRANCH  25  26
ATOM     26  N   UNL     1      31.354  20.638 -18.742  1.00  0.00    -0.335 N 
ATOM     27  C   UNL     1      30.800  21.729 -19.628  1.00  0.00     0.262 C 
ATOM     28  C   UNL     1      30.333  20.118 -17.758  1.00  0.00     0.262 C 
ATOM     29  C   UNL     1      29.561  21.233 -20.361  1.00  0.00     0.070 C 
ATOM     30  C   UNL     1      29.094  19.629 -18.497  1.00  0.00     0.070 C 
ATOM     31  C   UNL     1      28.497  20.746 -19.367  1.00  0.00     0.032 C 
ATOM     32  H   UNL     1      31.574  19.846 -19.388  1.00  0.00     0.348 HD
BRANCH  31  33
ATOM     33  C   UNL     1      27.192  20.399 -20.080  1.00  0.00    -0.027 A 
ATOM     34  C   UNL     1      27.180  19.925 -21.402  1.00  0.00     0.005 A 
ATOM     35  C   UNL     1      25.944  20.570 -19.424  1.00  0.00     0.055 A 
ATOM     36  C   UNL     1      25.977  19.604 -22.038  1.00  0.00     0.000 A 
ATOM     37  C   UNL     1      24.744  20.247 -20.069  1.00  0.00     0.020 A 
ATOM     38  C   UNL     1      25.883  21.101 -18.089  1.00  0.00     0.099 C 
ATOM     39  C   UNL     1      24.763  19.760 -21.374  1.00  0.00     0.001 A 
ATOM     40  N   UNL     1      25.949  21.557 -17.023  1.00  0.00    -0.192 NA
ENDBRANCH  31  33
ENDBRANCH  25  26
ENDBRANCH  24  25
ENDBRANCH   1  24
TORSDOF 7
ENDMDL
MODEL 5
REMARK VINA RESULT:    -5.955      2.747      4.190
REMARK INTER + INTRA:         -10.797
REMARK INTER:                  -8.573
REMARK INTRA:                  -2.224
REMARK UNBOUND:                -2.406
REMARK SMILES CC1=C(C(=O)NCCC[NH+]2CCC(c3ccccc3C#N)CC2)C(c2ccc(F)c(F)c2)NC(=O)N1
REMARK SMILES IDX 7 1 6 2 4 3 5 4 3 6 2 7 36 8 24 9 34 10 33 11 35 12 1 13
REMARK SMILES IDX 25 16 26 17 32 18 27 19 30 20 28 21 31 22 29 23 8 24 9 25
REMARK SMILES IDX 10 26 11 27 23 28 12 29 22 30 13 31 14 33 15 34 19 35 16 36
REMARK SMILES IDX 18 37 20 38 17 39 21 40
REMARK H PARENT 6 5 36 14 33 15 10 32
ROOT
ATOM      1  C   UNL     1      34.602  22.248 -19.604  1.00  0.00     0.122 C 
ENDROOT
BRANCH   1   2
ATOM      2  N   UNL     1      33.780  23.108 -20.433  1.00  0.00    -0.352 N 
ATOM      3  C   UNL     1      34.317  23.970 -21.349  1.00  0.00     0.251 C 
ATOM      4  O   UNL     1      35.528  24.165 -21.430  1.00  0.00    -0.270 OA
ATOM      5  H   UNL     1      32.771  22.998 -20.371  1.00  0.00     0.163 HD
BRANCH   3   6
ATOM      6  C   UNL     1      33.350  24.696 -22.197  1.00  0.00     0.063 C 
ATOM      7  C   UNL     1      32.825  25.862 -21.775  1.00  0.00     0.028 C 
ATOM      8  N   UNL     1      32.026  26.564 -22.650  1.00  0.00    -0.311 N 
ATOM      9  C   UNL     1      33.075  24.146 -23.573  1.00  0.00     0.152 C 
ATOM     10  C   UNL     1      31.830  26.254 -23.963  1.00  0.00     0.319 C 
ATOM     11  N   UNL     1      32.467  25.148 -24.423  1.00  0.00    -0.327 N 
ATOM     12  O   UNL     1      31.137  26.949 -24.697  1.00  0.00    -0.248 OA
ATOM     13  C   UNL     1      33.008  26.489 -20.423  1.00  0.00     0.065 C 
ATOM     14  H   UNL     1      31.579  27.431 -22.364  1.00  0.00     0.171 HD
ATOM     15  H   UNL     1      32.254  24.917 -25.386  1.00  0.00     0.166 HD
BRANCH   9  16
ATOM     16  C   UNL     1      32.199  22.896 -23.577  1.00  0.00    -0.018 A 
ATOM     17  C   UNL     1      32.793  21.619 -23.535  1.00  0.00     0.009 A 
ATOM     18  C   UNL     1      30.798  22.983 -23.671  1.00  0.00     0.048 A 
ATOM     19  C   UNL     1      32.003  20.465 -23.572  1.00  0.00     0.043 A 
ATOM     20  C   UNL     1      30.020  21.829 -23.696  1.00  0.00     0.159 A 
ATOM     21  C   UNL     1      30.619  20.577 -23.647  1.00  0.00     0.158 A 
ATOM     22  F   UNL     1      28.686  21.940 -23.749  1.00  0.00    -0.204 F 
ATOM     23  F   UNL     1      29.870  19.470 -23.679  1.00  0.00    -0.204 F 
ENDBRANCH   9  16
ENDBRANCH   3   6
ENDBRANCH   1   2
BRANCH   1  24
ATOM     24  C   UNL     1      33.920  20.913 -19.277  1.00  0.00     0.083 C 
BRANCH  24  25
ATOM     25  C   UNL     1      32.707  21.059 -18.355  1.00  0.00     0.264 C 
BRANCH  25  26
ATOM     26  N   UNL     1      31.414  20.683 -19.045  1.00  0.00    -0.335 N 
ATOM     27  C   UNL     1      30.695  21.894 -19.590  1.00  0.00     0.262 C 
ATOM     28  C   UNL     1      30.524  19.820 -18.184  1.00  0.00     0.262 C 
ATOM     29  C   UNL     1      29.458  21.465 -20.366  1.00  0.00     0.070 C 
ATOM     30  C   UNL     1      29.286  19.399 -18.964  1.00  0.00     0.070 C 
ATOM     31  C   UNL     1      28.522  20.627 -19.485  1.00  0.00     0.032 C 
ATOM     32  H   UNL     1      31.660  20.110 -19.885  1.00  0.00     0.348 HD
BRANCH  31  33
ATOM     33  C   UNL     1      27.207  20.329 -20.201  1.00  0.00    -0.027 A 
ATOM     34  C   UNL     1      27.178  19.908 -21.541  1.00  0.00     0.005 A 
ATOM     35  C   UNL     1      25.966  20.494 -19.529  1.00  0.00     0.055 A 
ATOM     36  C   UNL     1      25.965  19.632 -22.179  1.00  0.00     0.000 A 
ATOM     37  C   UNL     1      24.756  20.216 -20.177  1.00  0.00     0.020 A 
ATOM     38  C   UNL     1      25.923  20.973 -18.174  1.00  0.00     0.099 C 
ATOM     39  C   UNL     1      24.758  19.780 -21.500  1.00  0.00     0.001 A 
ATOM     40  N   UNL     1      26.004  21.384 -17.091  1.00  0.00    -0.192 NA
ENDBRANCH  31  33
ENDBRANCH  25  26
ENDBRANCH  24  25
ENDBRANCH   1  24
TORSDOF 7
ENDMDL
MODEL 6
REMARK VINA RESULT:    -5.897      3.383      5.630
REMARK INTER + INTRA:         -10.715
REMARK INTER:                  -8.145
REMARK INTRA:                  -2.570
REMARK UNBOUND:                -2.406
REMARK SMILES CC1=C(C(=O)NCCC[NH+]2CCC(c3ccccc3C#N)CC2)C(c2ccc(F)c(F)c2)NC(=O)N1
REMARK SMILES IDX 7 1 6 2 4 3 5 4 3 6 2 7 36 8 24 9 34 10 33 11 35 12 1 13
REMARK SMILES IDX 25 16 26 17 32 18 27 19 30 20 28 21 31 22 29 23 8 24 9 25
REMARK SMILES IDX 10 26 11 27 23 28 12 29 22 30 13 31 14 33 15 34 19 35 16 36
REMARK SMILES IDX 18 37 20 38 17 39 21 40
REMARK H PARENT 6 5 36 14 33 15 10 32
ROOT
ATOM      1  C   UNL     1      34.341  20.606 -20.211  1.00  0.00     0.122 C 
ENDROOT
BRANCH   1   2
ATOM      2  N   UNL     1      33.925  20.606 -21.601  1.00  0.00    -0.352 N 
ATOM      3  C   UNL     1      32.836  19.905 -22.037  1.00  0.00     0.251 C 
ATOM      4  O   UNL     1      32.223  19.129 -21.307  1.00  0.00    -0.270 OA
ATOM      5  H   UNL     1      34.429  21.212 -22.243  1.00  0.00     0.163 HD
BRANCH   3   6
ATOM      6  C   UNL     1      32.472  20.094 -23.456  1.00  0.00     0.063 C 
ATOM      7  C   UNL     1      33.149  19.437 -24.419  1.00  0.00     0.028 C 
ATOM      8  N   UNL     1      32.696  19.547 -25.715  1.00  0.00    -0.311 N 
ATOM      9  C   UNL     1      31.265  20.941 -23.763  1.00  0.00     0.152 C 
ATOM     10  C   UNL     1      31.534  20.150 -26.097  1.00  0.00     0.319 C 
ATOM     11  N   UNL     1      30.785  20.698 -25.108  1.00  0.00    -0.327 N 
ATOM     12  O   UNL     1      31.171  20.174 -27.267  1.00  0.00    -0.248 OA
ATOM     13  C   UNL     1      34.375  18.591 -24.233  1.00  0.00     0.065 C 
ATOM     14  H   UNL     1      33.195  19.098 -26.479  1.00  0.00     0.171 HD
ATOM     15  H   UNL     1      29.960  21.185 -25.434  1.00  0.00     0.166 HD
BRANCH   9  16
ATOM     16  C   UNL     1      31.497  22.439 -23.583  1.00  0.00    -0.018 A 
ATOM     17  C   UNL     1      32.733  23.010 -23.944  1.00  0.00     0.009 A 
ATOM     18  C   UNL     1      30.513  23.269 -23.015  1.00  0.00     0.048 A 
ATOM     19  C   UNL     1      32.969  24.375 -23.752  1.00  0.00     0.043 A 
ATOM     20  C   UNL     1      30.755  24.629 -22.838  1.00  0.00     0.159 A 
ATOM     21  C   UNL     1      31.976  25.178 -23.204  1.00  0.00     0.158 A 
ATOM     22  F   UNL     1      29.789  25.404 -22.328  1.00  0.00    -0.204 F 
ATOM     23  F   UNL     1      32.208  26.483 -23.027  1.00  0.00    -0.204 F 
ENDBRANCH   9  16
ENDBRANCH   3   6
ENDBRANCH   1   2
BRANCH   1  24
ATOM     24  C   UNL     1      33.630  21.684 -19.381  1.00  0.00     0.083 C 
BRANCH  24  25
ATOM     25  C   UNL     1      32.652  21.113 -18.353  1.00  0.00     0.264 C 
BRANCH  25  26
ATOM     26  N   UNL     1      31.340  20.695 -18.981  1.00  0.00    -0.335 N 
ATOM     27  C   UNL     1      30.667  21.845 -19.693  1.00  0.00     0.262 C 
ATOM     28  C   UNL     1      30.422  20.001 -18.004  1.00  0.00     0.262 C 
ATOM     29  C   UNL     1      29.408  21.360 -20.399  1.00  0.00     0.070 C 
ATOM     30  C   UNL     1      29.162  19.524 -18.716  1.00  0.00     0.070 C 
ATOM     31  C   UNL     1      28.445  20.695 -19.406  1.00  0.00     0.032 C 
ATOM     32  H   UNL     1      31.557  19.999 -19.730  1.00  0.00     0.348 HD
BRANCH  31  33
ATOM     33  C   UNL     1      27.114  20.352 -20.071  1.00  0.00    -0.027 A 
ATOM     34  C   UNL     1      27.054  19.859 -21.385  1.00  0.00     0.005 A 
ATOM     35  C   UNL     1      25.890  20.547 -19.377  1.00  0.00     0.055 A 
ATOM     36  C   UNL     1      25.827  19.542 -21.976  1.00  0.00     0.000 A 
ATOM     37  C   UNL     1      24.666  20.228 -19.979  1.00  0.00     0.020 A 
ATOM     38  C   UNL     1      25.878  21.099 -18.049  1.00  0.00     0.099 C 
ATOM     39  C   UNL     1      24.637  19.721 -21.276  1.00  0.00     0.001 A 
ATOM     40  N   UNL     1      25.983  21.569 -16.993  1.00  0.00    -0.192 NA
ENDBRANCH  31  33
ENDBRANCH  25  26
ENDBRANCH  24  25
ENDBRANCH   1  24
TORSDOF 7
ENDMDL
MODEL 7
REMARK VINA RESULT:    -5.806      1.976      2.909
REMARK INTER + INTRA:         -10.587
REMARK INTER:                  -8.557
REMARK INTRA:                  -2.030
REMARK UNBOUND:                -2.406
REMARK SMILES CC1=C(C(=O)NCCC[NH+]2CCC(c3ccccc3C#N)CC2)C(c2ccc(F)c(F)c2)NC(=O)N1
REMARK SMILES IDX 7 1 6 2 4 3 5 4 3 6 2 7 36 8 24 9 34 10 33 11 35 12 1 13
REMARK SMILES IDX 25 16 26 17 32 18 27 19 30 20 28 21 31 22 29 23 8 24 9 25
REMARK SMILES IDX 10 26 11 27 23 28 12 29 22 30 13 31 14 33 15 34 19 35 16 36
REMARK SMILES IDX 18 37 20 38 17 39 21 40
REMARK H PARENT 6 5 36 14 33 15 10 32
ROOT
ATOM      1  C   UNL     1      34.231  21.077 -24.681  1.00  0.00     0.122 C 
ENDROOT
BRANCH   1   2
ATOM      2  N   UNL     1      34.514  22.017 -23.613  1.00  0.00    -0.352 N 
ATOM      3  C   UNL     1      35.479  22.979 -23.724  1.00  0.00     0.251 C 
ATOM      4  O   UNL     1      36.252  23.021 -24.677  1.00  0.00    -0.270 OA
ATOM      5  H   UNL     1      33.915  21.992 -22.792  1.00  0.00     0.163 HD
BRANCH   3   6
ATOM      6  C   UNL     1      35.572  23.932 -22.599  1.00  0.00     0.063 C 
ATOM      7  C   UNL     1      36.342  23.643 -21.532  1.00  0.00     0.028 C 
ATOM      8  N   UNL     1      36.496  24.613 -20.566  1.00  0.00    -0.311 N 
ATOM      9  C   UNL     1      34.878  25.261 -22.748  1.00  0.00     0.152 C 
ATOM     10  C   UNL     1      36.053  25.899 -20.660  1.00  0.00     0.319 C 
ATOM     11  N   UNL     1      35.390  26.226 -21.798  1.00  0.00    -0.327 N 
ATOM     12  O   UNL     1      36.263  26.723 -19.778  1.00  0.00    -0.248 OA
ATOM     13  C   UNL     1      37.055  22.348 -21.266  1.00  0.00     0.065 C 
ATOM     14  H   UNL     1      37.039  24.428 -19.727  1.00  0.00     0.171 HD
ATOM     15  H   UNL     1      35.027  27.172 -21.808  1.00  0.00     0.166 HD
BRANCH   9  16
ATOM     16  C   UNL     1      33.360  25.187 -22.610  1.00  0.00    -0.018 A 
ATOM     17  C   UNL     1      32.539  26.010 -23.406  1.00  0.00     0.009 A 
ATOM     18  C   UNL     1      32.751  24.342 -21.665  1.00  0.00     0.048 A 
ATOM     19  C   UNL     1      31.148  25.976 -23.266  1.00  0.00     0.043 A 
ATOM     20  C   UNL     1      31.364  24.308 -21.540  1.00  0.00     0.159 A 
ATOM     21  C   UNL     1      30.568  25.120 -22.336  1.00  0.00     0.158 A 
ATOM     22  F   UNL     1      30.808  23.469 -20.657  1.00  0.00    -0.204 F 
ATOM     23  F   UNL     1      29.237  25.090 -22.210  1.00  0.00    -0.204 F 
ENDBRANCH   9  16
ENDBRANCH   3   6
ENDBRANCH   1   2
BRANCH   1  24
ATOM     24  C   UNL     1      32.860  21.312 -25.328  1.00  0.00     0.083 C 
BRANCH  24  25
ATOM     25  C   UNL     1      32.065  20.024 -25.553  1.00  0.00     0.264 C 
BRANCH  25  26
ATOM     26  N   UNL     1      30.709  20.065 -24.882  1.00  0.00    -0.335 N 
ATOM     27  C   UNL     1      30.641  21.133 -23.817  1.00  0.00     0.262 C 
ATOM     28  C   UNL     1      30.270  18.712 -24.375  1.00  0.00     0.262 C 
ATOM     29  C   UNL     1      29.234  21.212 -23.242  1.00  0.00     0.070 C 
ATOM     30  C   UNL     1      28.865  18.799 -23.795  1.00  0.00     0.070 C 
ATOM     31  C   UNL     1      28.796  19.853 -22.678  1.00  0.00     0.032 C 
ATOM     32  H   UNL     1      30.009  20.352 -25.603  1.00  0.00     0.348 HD
BRANCH  31  33
ATOM     33  C   UNL     1      27.455  19.959 -21.956  1.00  0.00    -0.027 A 
ATOM     34  C   UNL     1      26.238  19.793 -22.636  1.00  0.00     0.005 A 
ATOM     35  C   UNL     1      27.406  20.256 -20.567  1.00  0.00     0.055 A 
ATOM     36  C   UNL     1      25.018  19.887 -21.957  1.00  0.00     0.000 A 
ATOM     37  C   UNL     1      26.179  20.348 -19.896  1.00  0.00     0.020 A 
ATOM     38  C   UNL     1      28.613  20.490 -19.823  1.00  0.00     0.099 C 
ATOM     39  C   UNL     1      24.988  20.158 -20.592  1.00  0.00     0.001 A 
ATOM     40  N   UNL     1      29.646  20.682 -19.326  1.00  0.00    -0.192 NA
ENDBRANCH  31  33
ENDBRANCH  25  26
ENDBRANCH  24  25
ENDBRANCH   1  24
TORSDOF 7
ENDMDL
MODEL 8
REMARK VINA RESULT:    -5.781      3.018      4.969
REMARK INTER + INTRA:         -10.552
REMARK INTER:                  -9.068
REMARK INTRA:                  -1.484
REMARK UNBOUND:                -2.406
REMARK SMILES CC1=C(C(=O)NCCC[NH+]2CCC(c3ccccc3C#N)CC2)C(c2ccc(F)c(F)c2)NC(=O)N1
REMARK SMILES IDX 7 1 6 2 4 3 5 4 3 6 2 7 36 8 24 9 34 10 33 11 35 12 1 13
REMARK SMILES IDX 25 16 26 17 32 18 27 19 30 20 28 21 31 22 29 23 8 24 9 25
REMARK SMILES IDX 10 26 11 27 23 28 12 29 22 30 13 31 14 33 15 34 19 35 16 36
REMARK SMILES IDX 18 37 20 38 17 39 21 40
REMARK H PARENT 6 5 36 14 33 15 10 32
ROOT
ATOM      1  C   UNL     1      33.032  22.635 -17.801  1.00  0.00     0.122 C 
ENDROOT
BRANCH   1   2
ATOM      2  N   UNL     1      32.723  23.429 -18.975  1.00  0.00    -0.352 N 
ATOM      3  C   UNL     1      33.690  24.073 -19.696  1.00  0.00     0.251 C 
ATOM      4  O   UNL     1      34.858  24.128 -19.319  1.00  0.00    -0.270 OA
ATOM      5  H   UNL     1      31.760  23.434 -19.301  1.00  0.00     0.163 HD
BRANCH   3   6
ATOM      6  C   UNL     1      33.235  24.747 -20.929  1.00  0.00     0.063 C 
ATOM      7  C   UNL     1      33.266  24.093 -22.107  1.00  0.00     0.028 C 
ATOM      8  N   UNL     1      32.717  24.716 -23.205  1.00  0.00    -0.311 N 
ATOM      9  C   UNL     1      32.639  26.125 -20.795  1.00  0.00     0.152 C 
ATOM     10  C   UNL     1      32.014  25.884 -23.182  1.00  0.00     0.319 C 
ATOM     11  N   UNL     1      31.870  26.477 -21.970  1.00  0.00    -0.327 N 
ATOM     12  O   UNL     1      31.516  26.361 -24.194  1.00  0.00    -0.248 OA
ATOM     13  C   UNL     1      33.856  22.736 -22.362  1.00  0.00     0.065 C 
ATOM     14  H   UNL     1      32.749  24.276 -24.121  1.00  0.00     0.171 HD
ATOM     15  H   UNL     1      31.392  27.369 -21.999  1.00  0.00     0.166 HD
BRANCH   9  16
ATOM     16  C   UNL     1      33.667  27.221 -20.528  1.00  0.00    -0.018 A 
ATOM     17  C   UNL     1      33.357  28.279 -19.650  1.00  0.00     0.009 A 
ATOM     18  C   UNL     1      34.914  27.230 -21.179  1.00  0.00     0.048 A 
ATOM     19  C   UNL     1      34.278  29.307 -19.423  1.00  0.00     0.043 A 
ATOM     20  C   UNL     1      35.827  28.253 -20.938  1.00  0.00     0.159 A 
ATOM     21  C   UNL     1      35.511  29.286 -20.065  1.00  0.00     0.158 A 
ATOM     22  F   UNL     1      37.022  28.220 -21.543  1.00  0.00    -0.204 F 
ATOM     23  F   UNL     1      36.387  30.270 -19.840  1.00  0.00    -0.204 F 
ENDBRANCH   9  16
ENDBRANCH   3   6
ENDBRANCH   1   2
BRANCH   1  24
ATOM     24  C   UNL     1      32.926  21.127 -18.062  1.00  0.00     0.083 C 
BRANCH  24  25
ATOM     25  C   UNL     1      31.949  20.415 -17.124  1.00  0.00     0.264 C 
BRANCH  25  26
ATOM     26  N   UNL     1      30.610  20.156 -17.780  1.00  0.00    -0.335 N 
ATOM     27  C   UNL     1      30.768  19.604 -19.178  1.00  0.00     0.262 C 
ATOM     28  C   UNL     1      29.696  21.357 -17.732  1.00  0.00     0.262 C 
ATOM     29  C   UNL     1      29.405  19.258 -19.762  1.00  0.00     0.070 C 
ATOM     30  C   UNL     1      28.338  21.006 -18.324  1.00  0.00     0.070 C 
ATOM     31  C   UNL     1      28.483  20.486 -19.762  1.00  0.00     0.032 C 
ATOM     32  H   UNL     1      30.135  19.399 -17.239  1.00  0.00     0.348 HD
BRANCH  31  33
ATOM     33  C   UNL     1      27.174  20.194 -20.493  1.00  0.00    -0.027 A 
ATOM     34  C   UNL     1      25.968  20.013 -19.796  1.00  0.00     0.005 A 
ATOM     35  C   UNL     1      27.149  20.074 -21.908  1.00  0.00     0.055 A 
ATOM     36  C   UNL     1      24.777  19.754 -20.481  1.00  0.00     0.000 A 
ATOM     37  C   UNL     1      25.951  19.813 -22.585  1.00  0.00     0.020 A 
ATOM     38  C   UNL     1      28.358  20.194 -22.676  1.00  0.00     0.099 C 
ATOM     39  C   UNL     1      24.766  19.659 -21.870  1.00  0.00     0.001 A 
ATOM     40  N   UNL     1      29.394  20.288 -23.194  1.00  0.00    -0.192 NA
ENDBRANCH  31  33
ENDBRANCH  25  26
ENDBRANCH  24  25
ENDBRANCH   1  24
TORSDOF 7
ENDMDL
MODEL 9
REMARK VINA RESULT:    -5.728      2.522      3.455
REMARK INTER + INTRA:         -10.477
REMARK INTER:                  -8.358
REMARK INTRA:                  -2.119
REMARK UNBOUND:                -2.406
REMARK SMILES CC1=C(C(=O)NCCC[NH+]2CCC(c3ccccc3C#N)CC2)C(c2ccc(F)c(F)c2)NC(=O)N1
REMARK SMILES IDX 7 1 6 2 4 3 5 4 3 6 2 7 36 8 24 9 34 10 33 11 35 12 1 13
REMARK SMILES IDX 25 16 26 17 32 18 27 19 30 20 28 21 31 22 29 23 8 24 9 25
REMARK SMILES IDX 10 26 11 27 23 28 12 29 22 30 13 31 14 33 15 34 19 35 16 36
REMARK SMILES IDX 18 37 20 38 17 39 21 40
REMARK H PARENT 6 5 36 14 33 15 10 32
ROOT
ATOM      1  C   UNL     1      34.614  21.194 -19.630  1.00  0.00     0.122 C 
ENDROOT
BRANCH   1   2
ATOM      2  N   UNL     1      34.322  22.615 -19.602  1.00  0.00    -0.352 N 
ATOM      3  C   UNL     1      35.250  23.558 -19.946  1.00  0.00     0.251 C 
ATOM      4  O   UNL     1      36.423  23.269 -20.171  1.00  0.00    -0.270 OA
ATOM      5  H   UNL     1      33.369  22.896 -19.389  1.00  0.00     0.163 HD
BRANCH   3   6
ATOM      6  C   UNL     1      34.771  24.955 -19.977  1.00  0.00     0.063 C 
ATOM      7  C   UNL     1      34.744  25.685 -18.845  1.00  0.00     0.028 C 
ATOM      8  N   UNL     1      34.408  27.016 -18.943  1.00  0.00    -0.311 N 
ATOM      9  C   UNL     1      34.432  25.550 -21.320  1.00  0.00     0.152 C 
ATOM     10  C   UNL     1      34.236  27.704 -20.108  1.00  0.00     0.319 C 
ATOM     11  N   UNL     1      34.393  26.996 -21.255  1.00  0.00    -0.327 N 
ATOM     12  O   UNL     1      33.978  28.901 -20.122  1.00  0.00    -0.248 OA
ATOM     13  C   UNL     1      35.034  25.193 -17.456  1.00  0.00     0.065 C 
ATOM     14  H   UNL     1      34.340  27.597 -18.112  1.00  0.00     0.171 HD
ATOM     15  H   UNL     1      34.202  27.524 -22.098  1.00  0.00     0.166 HD
BRANCH   9  16
ATOM     16  C   UNL     1      33.118  25.044 -21.908  1.00  0.00    -0.018 A 
ATOM     17  C   UNL     1      31.892  25.556 -21.440  1.00  0.00     0.009 A 
ATOM     18  C   UNL     1      33.094  24.032 -22.886  1.00  0.00     0.048 A 
ATOM     19  C   UNL     1      30.680  25.077 -21.948  1.00  0.00     0.043 A 
ATOM     20  C   UNL     1      31.883  23.570 -23.392  1.00  0.00     0.159 A 
ATOM     21  C   UNL     1      30.682  24.089 -22.925  1.00  0.00     0.158 A 
ATOM     22  F   UNL     1      31.889  22.631 -24.348  1.00  0.00    -0.204 F 
ATOM     23  F   UNL     1      29.520  23.638 -23.408  1.00  0.00    -0.204 F 
ENDBRANCH   9  16
ENDBRANCH   3   6
ENDBRANCH   1   2
BRANCH   1  24
ATOM     24  C   UNL     1      33.482  20.345 -19.039  1.00  0.00     0.083 C 
BRANCH  24  25
ATOM     25  C   UNL     1      32.550  21.133 -18.115  1.00  0.00     0.264 C 
BRANCH  25  26
ATOM     26  N   UNL     1      31.109  21.079 -18.575  1.00  0.00    -0.335 N 
ATOM     27  C   UNL     1      30.563  19.672 -18.546  1.00  0.00     0.262 C 
ATOM     28  C   UNL     1      30.898  21.755 -19.909  1.00  0.00     0.262 C 
ATOM     29  C   UNL     1      29.085  19.675 -18.913  1.00  0.00     0.070 C 
ATOM     30  C   UNL     1      29.419  21.749 -20.272  1.00  0.00     0.070 C 
ATOM     31  C   UNL     1      28.864  20.316 -20.290  1.00  0.00     0.032 C 
ATOM     32  H   UNL     1      30.536  21.610 -17.880  1.00  0.00     0.348 HD
BRANCH  31  33
ATOM     33  C   UNL     1      27.410  20.179 -20.737  1.00  0.00    -0.027 A 
ATOM     34  C   UNL     1      26.348  20.271 -19.824  1.00  0.00     0.005 A 
ATOM     35  C   UNL     1      27.096  19.929 -22.100  1.00  0.00     0.055 A 
ATOM     36  C   UNL     1      25.022  20.150 -20.252  1.00  0.00     0.000 A 
ATOM     37  C   UNL     1      25.765  19.808 -22.519  1.00  0.00     0.020 A 
ATOM     38  C   UNL     1      28.140  19.771 -23.077  1.00  0.00     0.099 C 
ATOM     39  C   UNL     1      24.730  19.925 -21.595  1.00  0.00     0.001 A 
ATOM     40  N   UNL     1      29.058  19.640 -23.776  1.00  0.00    -0.192 NA
ENDBRANCH  31  33
ENDBRANCH  25  26
ENDBRANCH  24  25
ENDBRANCH   1  24
TORSDOF 7
ENDMDL
