MODEL 1
REMARK VINA RESULT:    -6.460      0.000      0.000
REMARK INTER + INTRA:         -11.531
REMARK INTER:                  -9.482
REMARK INTRA:                  -2.049
REMARK UNBOUND:                -2.049
REMARK SMILES O=C1NC(C(F)(F)F)=C(C(=O)NCCC[NH+]2CCC(c3ccc(F)cc3)CC2)C(c2ccc(F)c(F)c2)N1
REMARK SMILES IDX 13 1 12 2 10 3 11 4 9 6 1 7 2 8 3 9 38 10 4 11 29 12 5 15
REMARK SMILES IDX 6 16 7 17 8 18 30 19 31 20 37 21 32 22 35 23 33 24 36 25
REMARK SMILES IDX 34 26 14 27 15 28 16 29 17 30 28 31 18 32 27 33 19 34 20 36
REMARK SMILES IDX 21 37 26 38 22 39 25 40 23 41 24 42
REMARK H PARENT 12 5 3 13 38 14 16 35
ROOT
ATOM      1  C   UNL     1      29.840  20.517 -23.759  1.00  0.00     0.122 C 
ENDROOT
BRANCH   1   2
ATOM      2  N   UNL     1      30.445  21.278 -22.690  1.00  0.00    -0.352 N 
ATOM      3  C   UNL     1      31.545  20.844 -21.995  1.00  0.00     0.251 C 
ATOM      4  O   UNL     1      32.146  19.805 -22.238  1.00  0.00    -0.270 OA
ATOM      5  H   UNL     1      29.960  22.117 -22.382  1.00  0.00     0.163 HD
BRANCH   3   6
ATOM      6  C   UNL     1      31.993  21.803 -20.974  1.00  0.00     0.072 C 
ATOM      7  O   UNL     1      33.681  24.011 -18.065  1.00  0.00    -0.248 OA
ATOM      8  C   UNL     1      33.197  23.330 -18.959  1.00  0.00     0.320 C 
ATOM      9  N   UNL     1      32.076  22.575 -18.770  1.00  0.00    -0.303 N 
ATOM     10  N   UNL     1      33.751  23.270 -20.199  1.00  0.00    -0.327 N 
ATOM     11  C   UNL     1      31.514  21.734 -19.716  1.00  0.00     0.135 C 
ATOM     12  C   UNL     1      33.030  22.806 -21.373  1.00  0.00     0.152 C 
ATOM     13  H   UNL     1      31.724  22.569 -17.813  1.00  0.00     0.171 HD
ATOM     14  H   UNL     1      34.485  23.953 -20.321  1.00  0.00     0.166 HD
BRANCH  11  15
ATOM     15  C   UNL     1      30.409  20.822 -19.248  1.00  0.00     0.431 C 
ATOM     16  F   UNL     1      30.265  20.869 -17.896  1.00  0.00    -0.165 F 
ATOM     17  F   UNL     1      30.613  19.515 -19.580  1.00  0.00    -0.165 F 
ATOM     18  F   UNL     1      29.210  21.169 -19.786  1.00  0.00    -0.165 F 
ENDBRANCH  11  15
BRANCH  12  19
ATOM     19  C   UNL     1      32.486  23.969 -22.191  1.00  0.00    -0.018 A 
ATOM     20  C   UNL     1      31.275  24.616 -21.869  1.00  0.00     0.009 A 
ATOM     21  C   UNL     1      33.213  24.435 -23.305  1.00  0.00     0.048 A 
ATOM     22  C   UNL     1      30.831  25.721 -22.612  1.00  0.00     0.043 A 
ATOM     23  C   UNL     1      32.756  25.534 -24.041  1.00  0.00     0.159 A 
ATOM     24  C   UNL     1      31.574  26.171 -23.695  1.00  0.00     0.158 A 
ATOM     25  F   UNL     1      33.439  25.928 -25.119  1.00  0.00    -0.204 F 
ATOM     26  F   UNL     1      31.139  27.217 -24.408  1.00  0.00    -0.204 F 
ENDBRANCH  12  19
ENDBRANCH   3   6
ENDBRANCH   1   2
BRANCH   1  27
ATOM     27  C   UNL     1      28.737  19.567 -23.298  1.00  0.00     0.083 C 
BRANCH  27  28
ATOM     28  C   UNL     1      27.386  20.177 -22.912  1.00  0.00     0.264 C 
BRANCH  28  29
ATOM     29  N   UNL     1      26.366  19.175 -22.411  1.00  0.00    -0.335 N 
ATOM     30  C   UNL     1      25.058  19.830 -21.975  1.00  0.00     0.262 C 
ATOM     31  C   UNL     1      26.871  18.183 -21.406  1.00  0.00     0.262 C 
ATOM     32  C   UNL     1      24.850  19.757 -20.461  1.00  0.00     0.070 C 
ATOM     33  C   UNL     1      27.221  18.893 -20.100  1.00  0.00     0.070 C 
ATOM     34  C   UNL     1      26.164  19.942 -19.692  1.00  0.00     0.030 C 
ATOM     35  H   UNL     1      26.081  18.674 -23.278  1.00  0.00     0.348 HD
BRANCH  34  36
ATOM     36  C   UNL     1      25.941  19.991 -18.192  1.00  0.00    -0.044 A 
ATOM     37  C   UNL     1      25.779  18.819 -17.430  1.00  0.00     0.007 A 
ATOM     38  C   UNL     1      25.879  21.238 -17.540  1.00  0.00     0.007 A 
ATOM     39  C   UNL     1      25.586  18.895 -16.052  1.00  0.00     0.039 A 
ATOM     40  C   UNL     1      25.672  21.308 -16.160  1.00  0.00     0.039 A 
ATOM     41  C   UNL     1      25.543  20.135 -15.427  1.00  0.00     0.123 A 
ATOM     42  F   UNL     1      25.374  20.205 -14.096  1.00  0.00    -0.207 F 
ENDBRANCH  34  36
ENDBRANCH  28  29
ENDBRANCH  27  28
ENDBRANCH   1  27
TORSDOF 8
ENDMDL
MODEL 2
REMARK VINA RESULT:    -6.419      3.519      5.518
REMARK INTER + INTRA:         -11.470
REMARK INTER:                  -9.926
REMARK INTRA:                  -1.544
REMARK UNBOUND:                -2.049
REMARK SMILES O=C1NC(C(F)(F)F)=C(C(=O)NCCC[NH+]2CCC(c3ccc(F)cc3)CC2)C(c2ccc(F)c(F)c2)N1
REMARK SMILES IDX 13 1 12 2 10 3 11 4 9 6 1 7 2 8 3 9 38 10 4 11 29 12 5 15
REMARK SMILES IDX 6 16 7 17 8 18 30 19 31 20 37 21 32 22 35 23 33 24 36 25
REMARK SMILES IDX 34 26 14 27 15 28 16 29 17 30 28 31 18 32 27 33 19 34 20 36
REMARK SMILES IDX 21 37 26 38 22 39 25 40 23 41 24 42
REMARK H PARENT 12 5 3 13 38 14 16 35
ROOT
ATOM      1  C   UNL     1      32.570  22.105 -18.522  1.00  0.00     0.122 C 
ENDROOT
BRANCH   1   2
ATOM      2  N   UNL     1      32.372  23.011 -19.630  1.00  0.00    -0.352 N 
ATOM      3  C   UNL     1      33.392  23.734 -20.195  1.00  0.00     0.251 C 
ATOM      4  O   UNL     1      34.565  23.650 -19.854  1.00  0.00    -0.270 OA
ATOM      5  H   UNL     1      31.414  23.190 -19.921  1.00  0.00     0.163 HD
BRANCH   3   6
ATOM      6  C   UNL     1      32.948  24.565 -21.325  1.00  0.00     0.072 C 
ATOM      7  O   UNL     1      31.159  26.610 -24.292  1.00  0.00    -0.248 OA
ATOM      8  C   UNL     1      31.678  25.992 -23.372  1.00  0.00     0.320 C 
ATOM      9  N   UNL     1      32.399  24.853 -23.578  1.00  0.00    -0.303 N 
ATOM     10  N   UNL     1      31.558  26.394 -22.078  1.00  0.00    -0.327 N 
ATOM     11  C   UNL     1      32.955  24.071 -22.579  1.00  0.00     0.135 C 
ATOM     12  C   UNL     1      32.444  25.940 -21.017  1.00  0.00     0.152 C 
ATOM     13  H   UNL     1      32.407  24.524 -24.544  1.00  0.00     0.171 HD
ATOM     14  H   UNL     1      31.142  27.310 -22.001  1.00  0.00     0.166 HD
BRANCH  11  15
ATOM     15  C   UNL     1      33.526  22.739 -22.994  1.00  0.00     0.431 C 
ATOM     16  F   UNL     1      33.354  22.517 -24.324  1.00  0.00    -0.165 F 
ATOM     17  F   UNL     1      32.962  21.685 -22.339  1.00  0.00    -0.165 F 
ATOM     18  F   UNL     1      34.862  22.667 -22.750  1.00  0.00    -0.165 F 
ENDBRANCH  11  15
BRANCH  12  19
ATOM     19  C   UNL     1      33.542  26.955 -20.734  1.00  0.00    -0.018 A 
ATOM     20  C   UNL     1      34.822  26.864 -21.320  1.00  0.00     0.009 A 
ATOM     21  C   UNL     1      33.283  28.036 -19.868  1.00  0.00     0.048 A 
ATOM     22  C   UNL     1      35.793  27.849 -21.079  1.00  0.00     0.043 A 
ATOM     23  C   UNL     1      34.262  29.007 -19.632  1.00  0.00     0.159 A 
ATOM     24  C   UNL     1      35.507  28.912 -20.235  1.00  0.00     0.158 A 
ATOM     25  F   UNL     1      34.007  29.997 -18.772  1.00  0.00    -0.204 F 
ATOM     26  F   UNL     1      36.442  29.842 -19.999  1.00  0.00    -0.204 F 
ENDBRANCH  12  19
ENDBRANCH   3   6
ENDBRANCH   1   2
BRANCH   1  27
ATOM     27  C   UNL     1      31.343  21.264 -18.180  1.00  0.00     0.083 C 
BRANCH  27  28
ATOM     28  C   UNL     1      30.440  21.751 -17.041  1.00  0.00     0.264 C 
BRANCH  28  29
ATOM     29  N   UNL     1      29.293  20.819 -16.708  1.00  0.00    -0.335 N 
ATOM     30  C   UNL     1      29.441  19.445 -17.354  1.00  0.00     0.262 C 
ATOM     31  C   UNL     1      27.919  21.392 -16.890  1.00  0.00     0.262 C 
ATOM     32  C   UNL     1      28.405  19.207 -18.453  1.00  0.00     0.070 C 
ATOM     33  C   UNL     1      27.648  21.640 -18.372  1.00  0.00     0.070 C 
ATOM     34  C   UNL     1      28.130  20.478 -19.267  1.00  0.00     0.030 C 
ATOM     35  H   UNL     1      29.448  20.606 -15.701  1.00  0.00     0.348 HD
BRANCH  34  36
ATOM     36  C   UNL     1      27.195  20.214 -20.432  1.00  0.00    -0.044 A 
ATOM     37  C   UNL     1      25.796  20.201 -20.270  1.00  0.00     0.007 A 
ATOM     38  C   UNL     1      27.732  19.959 -21.709  1.00  0.00     0.007 A 
ATOM     39  C   UNL     1      24.962  19.965 -21.361  1.00  0.00     0.039 A 
ATOM     40  C   UNL     1      26.890  19.711 -22.797  1.00  0.00     0.039 A 
ATOM     41  C   UNL     1      25.513  19.731 -22.615  1.00  0.00     0.123 A 
ATOM     42  F   UNL     1      24.707  19.522 -23.669  1.00  0.00    -0.207 F 
ENDBRANCH  34  36
ENDBRANCH  28  29
ENDBRANCH  27  28
ENDBRANCH   1  27
TORSDOF 8
ENDMDL
MODEL 3
REMARK VINA RESULT:    -6.319      3.668      9.089
REMARK INTER + INTRA:         -11.323
REMARK INTER:                  -9.567
REMARK INTRA:                  -1.755
REMARK UNBOUND:                -2.049
REMARK SMILES O=C1NC(C(F)(F)F)=C(C(=O)NCCC[NH+]2CCC(c3ccc(F)cc3)CC2)C(c2ccc(F)c(F)c2)N1
REMARK SMILES IDX 13 1 12 2 10 3 11 4 9 6 1 7 2 8 3 9 38 10 4 11 29 12 5 15
REMARK SMILES IDX 6 16 7 17 8 18 30 19 31 20 37 21 32 22 35 23 33 24 36 25
REMARK SMILES IDX 34 26 14 27 15 28 16 29 17 30 28 31 18 32 27 33 19 34 20 36
REMARK SMILES IDX 21 37 26 38 22 39 25 40 23 41 24 42
REMARK H PARENT 12 5 3 13 38 14 16 35
ROOT
ATOM      1  C   UNL     1      33.230  21.060 -20.699  1.00  0.00     0.122 C 
ENDROOT
BRANCH   1   2
ATOM      2  N   UNL     1      31.953  20.713 -21.279  1.00  0.00    -0.352 N 
ATOM      3  C   UNL     1      30.798  21.404 -21.010  1.00  0.00     0.251 C 
ATOM      4  O   UNL     1      30.743  22.399 -20.297  1.00  0.00    -0.270 OA
ATOM      5  H   UNL     1      31.904  19.856 -21.824  1.00  0.00     0.163 HD
BRANCH   3   6
ATOM      6  C   UNL     1      29.633  20.881 -21.740  1.00  0.00     0.072 C 
ATOM      7  O   UNL     1      26.849  19.024 -23.972  1.00  0.00    -0.248 OA
ATOM      8  C   UNL     1      27.709  19.561 -23.287  1.00  0.00     0.320 C 
ATOM      9  N   UNL     1      28.294  20.739 -23.650  1.00  0.00    -0.303 N 
ATOM     10  N   UNL     1      28.151  19.011 -22.125  1.00  0.00    -0.327 N 
ATOM     11  C   UNL     1      29.317  21.366 -22.957  1.00  0.00     0.135 C 
ATOM     12  C   UNL     1      28.862  19.766 -21.105  1.00  0.00     0.152 C 
ATOM     13  H   UNL     1      28.009  21.092 -24.563  1.00  0.00     0.171 HD
ATOM     14  H   UNL     1      27.587  18.224 -21.838  1.00  0.00     0.166 HD
BRANCH  11  15
ATOM     15  C   UNL     1      29.976  22.542 -23.630  1.00  0.00     0.431 C 
ATOM     16  F   UNL     1      29.928  23.654 -22.848  1.00  0.00    -0.165 F 
ATOM     17  F   UNL     1      29.401  22.871 -24.822  1.00  0.00    -0.165 F 
ATOM     18  F   UNL     1      31.288  22.300 -23.895  1.00  0.00    -0.165 F 
ENDBRANCH  11  15
BRANCH  12  19
ATOM     19  C   UNL     1      27.931  20.212 -19.988  1.00  0.00    -0.018 A 
ATOM     20  C   UNL     1      28.403  20.558 -18.705  1.00  0.00     0.009 A 
ATOM     21  C   UNL     1      26.545  20.299 -20.232  1.00  0.00     0.048 A 
ATOM     22  C   UNL     1      27.521  21.018 -17.715  1.00  0.00     0.043 A 
ATOM     23  C   UNL     1      25.677  20.754 -19.233  1.00  0.00     0.159 A 
ATOM     24  C   UNL     1      26.164  21.110 -17.985  1.00  0.00     0.158 A 
ATOM     25  F   UNL     1      24.363  20.784 -19.475  1.00  0.00    -0.204 F 
ATOM     26  F   UNL     1      25.325  21.538 -17.032  1.00  0.00    -0.204 F 
ENDBRANCH  12  19
ENDBRANCH   3   6
ENDBRANCH   1   2
BRANCH   1  27
ATOM     27  C   UNL     1      34.142  21.852 -21.633  1.00  0.00     0.083 C 
BRANCH  27  28
ATOM     28  C   UNL     1      34.404  23.323 -21.293  1.00  0.00     0.264 C 
BRANCH  28  29
ATOM     29  N   UNL     1      33.216  24.051 -20.697  1.00  0.00    -0.335 N 
ATOM     30  C   UNL     1      32.642  25.111 -21.632  1.00  0.00     0.262 C 
ATOM     31  C   UNL     1      33.404  24.562 -19.299  1.00  0.00     0.262 C 
ATOM     32  C   UNL     1      32.890  26.531 -21.119  1.00  0.00     0.070 C 
ATOM     33  C   UNL     1      34.443  25.680 -19.286  1.00  0.00     0.070 C 
ATOM     34  C   UNL     1      34.266  26.670 -20.457  1.00  0.00     0.030 C 
ATOM     35  H   UNL     1      32.469  23.326 -20.702  1.00  0.00     0.348 HD
BRANCH  34  36
ATOM     36  C   UNL     1      34.561  28.103 -20.058  1.00  0.00    -0.044 A 
ATOM     37  C   UNL     1      35.455  28.906 -20.791  1.00  0.00     0.007 A 
ATOM     38  C   UNL     1      33.940  28.648 -18.917  1.00  0.00     0.007 A 
ATOM     39  C   UNL     1      35.698  30.223 -20.406  1.00  0.00     0.039 A 
ATOM     40  C   UNL     1      34.198  29.965 -18.528  1.00  0.00     0.039 A 
ATOM     41  C   UNL     1      35.064  30.745 -19.285  1.00  0.00     0.123 A 
ATOM     42  F   UNL     1      35.286  32.020 -18.926  1.00  0.00    -0.207 F 
ENDBRANCH  34  36
ENDBRANCH  28  29
ENDBRANCH  27  28
ENDBRANCH   1  27
TORSDOF 8
ENDMDL
MODEL 4
REMARK VINA RESULT:    -6.148      2.928      6.866
REMARK INTER + INTRA:         -11.072
REMARK INTER:                  -7.999
REMARK INTRA:                  -3.074
REMARK UNBOUND:                -2.049
REMARK SMILES O=C1NC(C(F)(F)F)=C(C(=O)NCCC[NH+]2CCC(c3ccc(F)cc3)CC2)C(c2ccc(F)c(F)c2)N1
REMARK SMILES IDX 13 1 12 2 10 3 11 4 9 6 1 7 2 8 3 9 38 10 4 11 29 12 5 15
REMARK SMILES IDX 6 16 7 17 8 18 30 19 31 20 37 21 32 22 35 23 33 24 36 25
REMARK SMILES IDX 34 26 14 27 15 28 16 29 17 30 28 31 18 32 27 33 19 34 20 36
REMARK SMILES IDX 21 37 26 38 22 39 25 40 23 41 24 42
REMARK H PARENT 12 5 3 13 38 14 16 35
ROOT
ATOM      1  C   UNL     1      26.500  19.447 -21.633  1.00  0.00     0.122 C 
ENDROOT
BRANCH   1   2
ATOM      2  N   UNL     1      26.946  19.330 -20.264  1.00  0.00    -0.352 N 
ATOM      3  C   UNL     1      27.638  20.323 -19.617  1.00  0.00     0.251 C 
ATOM      4  O   UNL     1      27.903  21.411 -20.112  1.00  0.00    -0.270 OA
ATOM      5  H   UNL     1      26.827  18.428 -19.809  1.00  0.00     0.163 HD
BRANCH   3   6
ATOM      6  C   UNL     1      27.958  19.983 -18.222  1.00  0.00     0.072 C 
ATOM      7  O   UNL     1      28.449  18.561 -14.491  1.00  0.00    -0.248 OA
ATOM      8  C   UNL     1      28.299  18.964 -15.636  1.00  0.00     0.320 C 
ATOM      9  N   UNL     1      27.483  20.017 -15.934  1.00  0.00    -0.303 N 
ATOM     10  N   UNL     1      28.924  18.379 -16.693  1.00  0.00    -0.327 N 
ATOM     11  C   UNL     1      27.218  20.481 -17.212  1.00  0.00     0.135 C 
ATOM     12  C   UNL     1      29.088  19.031 -17.982  1.00  0.00     0.152 C 
ATOM     13  H   UNL     1      26.961  20.388 -15.140  1.00  0.00     0.171 HD
ATOM     14  H   UNL     1      29.617  17.707 -16.400  1.00  0.00     0.166 HD
BRANCH  11  15
ATOM     15  C   UNL     1      26.126  21.511 -17.349  1.00  0.00     0.431 C 
ATOM     16  F   UNL     1      25.473  21.704 -16.172  1.00  0.00    -0.165 F 
ATOM     17  F   UNL     1      25.183  21.175 -18.276  1.00  0.00    -0.165 F 
ATOM     18  F   UNL     1      26.620  22.719 -17.731  1.00  0.00    -0.165 F 
ENDBRANCH  11  15
BRANCH  12  19
ATOM     19  C   UNL     1      30.468  19.658 -18.120  1.00  0.00    -0.018 A 
ATOM     20  C   UNL     1      31.559  18.963 -18.681  1.00  0.00     0.009 A 
ATOM     21  C   UNL     1      30.675  20.984 -17.689  1.00  0.00     0.048 A 
ATOM     22  C   UNL     1      32.804  19.591 -18.843  1.00  0.00     0.043 A 
ATOM     23  C   UNL     1      31.923  21.596 -17.850  1.00  0.00     0.159 A 
ATOM     24  C   UNL     1      32.978  20.903 -18.424  1.00  0.00     0.158 A 
ATOM     25  F   UNL     1      32.106  22.837 -17.392  1.00  0.00    -0.204 F 
ATOM     26  F   UNL     1      34.171  21.493 -18.570  1.00  0.00    -0.204 F 
ENDBRANCH  12  19
ENDBRANCH   3   6
ENDBRANCH   1   2
BRANCH   1  27
ATOM     27  C   UNL     1      27.547  19.031 -22.664  1.00  0.00     0.083 C 
BRANCH  27  28
ATOM     28  C   UNL     1      28.250  20.141 -23.453  1.00  0.00     0.264 C 
BRANCH  28  29
ATOM     29  N   UNL     1      29.763  20.051 -23.448  1.00  0.00    -0.335 N 
ATOM     30  C   UNL     1      30.349  20.022 -22.039  1.00  0.00     0.262 C 
ATOM     31  C   UNL     1      30.473  21.023 -24.343  1.00  0.00     0.262 C 
ATOM     32  C   UNL     1      31.114  21.304 -21.704  1.00  0.00     0.070 C 
ATOM     33  C   UNL     1      30.282  22.447 -23.825  1.00  0.00     0.070 C 
ATOM     34  C   UNL     1      30.436  22.547 -22.292  1.00  0.00     0.030 C 
ATOM     35  H   UNL     1      29.943  19.081 -23.780  1.00  0.00     0.348 HD
BRANCH  34  36
ATOM     36  C   UNL     1      31.125  23.827 -21.858  1.00  0.00    -0.044 A 
ATOM     37  C   UNL     1      31.998  23.860 -20.754  1.00  0.00     0.007 A 
ATOM     38  C   UNL     1      30.880  25.021 -22.564  1.00  0.00     0.007 A 
ATOM     39  C   UNL     1      32.624  25.049 -20.386  1.00  0.00     0.039 A 
ATOM     40  C   UNL     1      31.501  26.213 -22.182  1.00  0.00     0.039 A 
ATOM     41  C   UNL     1      32.379  26.212 -21.105  1.00  0.00     0.123 A 
ATOM     42  F   UNL     1      32.998  27.353 -20.760  1.00  0.00    -0.207 F 
ENDBRANCH  34  36
ENDBRANCH  28  29
ENDBRANCH  27  28
ENDBRANCH   1  27
TORSDOF 8
ENDMDL
MODEL 5
REMARK VINA RESULT:    -6.148      2.002      8.778
REMARK INTER + INTRA:         -11.072
REMARK INTER:                  -8.696
REMARK INTRA:                  -2.376
REMARK UNBOUND:                -2.049
REMARK SMILES O=C1NC(C(F)(F)F)=C(C(=O)NCCC[NH+]2CCC(c3ccc(F)cc3)CC2)C(c2ccc(F)c(F)c2)N1
REMARK SMILES IDX 13 1 12 2 10 3 11 4 9 6 1 7 2 8 3 9 38 10 4 11 29 12 5 15
REMARK SMILES IDX 6 16 7 17 8 18 30 19 31 20 37 21 32 22 35 23 33 24 36 25
REMARK SMILES IDX 34 26 14 27 15 28 16 29 17 30 28 31 18 32 27 33 19 34 20 36
REMARK SMILES IDX 21 37 26 38 22 39 25 40 23 41 24 42
REMARK H PARENT 12 5 3 13 38 14 16 35
ROOT
ATOM      1  C   UNL     1      31.270  20.675 -17.183  1.00  0.00     0.122 C 
ENDROOT
BRANCH   1   2
ATOM      2  N   UNL     1      30.135  20.587 -18.073  1.00  0.00    -0.352 N 
ATOM      3  C   UNL     1      29.959  19.554 -18.958  1.00  0.00     0.251 C 
ATOM      4  O   UNL     1      30.711  18.591 -19.049  1.00  0.00    -0.270 OA
ATOM      5  H   UNL     1      29.506  21.385 -18.108  1.00  0.00     0.163 HD
BRANCH   3   6
ATOM      6  C   UNL     1      28.716  19.670 -19.736  1.00  0.00     0.072 C 
ATOM      7  O   UNL     1      25.497  19.449 -22.139  1.00  0.00    -0.248 OA
ATOM      8  C   UNL     1      26.476  19.485 -21.405  1.00  0.00     0.320 C 
ATOM      9  N   UNL     1      27.540  20.301 -21.654  1.00  0.00    -0.303 N 
ATOM     10  N   UNL     1      26.574  18.702 -20.298  1.00  0.00    -0.327 N 
ATOM     11  C   UNL     1      28.704  20.344 -20.903  1.00  0.00     0.135 C 
ATOM     12  C   UNL     1      27.502  18.971 -19.211  1.00  0.00     0.152 C 
ATOM     13  H   UNL     1      27.483  20.819 -22.531  1.00  0.00     0.171 HD
ATOM     14  H   UNL     1      25.706  18.231 -20.087  1.00  0.00     0.166 HD
BRANCH  11  15
ATOM     15  C   UNL     1      29.847  21.151 -21.463  1.00  0.00     0.431 C 
ATOM     16  F   UNL     1      30.979  20.404 -21.565  1.00  0.00    -0.165 F 
ATOM     17  F   UNL     1      30.158  22.240 -20.704  1.00  0.00    -0.165 F 
ATOM     18  F   UNL     1      29.569  21.621 -22.708  1.00  0.00    -0.165 F 
ENDBRANCH  11  15
BRANCH  12  19
ATOM     19  C   UNL     1      26.819  19.694 -18.059  1.00  0.00    -0.018 A 
ATOM     20  C   UNL     1      26.531  21.074 -18.100  1.00  0.00     0.009 A 
ATOM     21  C   UNL     1      26.444  18.971 -16.909  1.00  0.00     0.048 A 
ATOM     22  C   UNL     1      25.850  21.697 -17.042  1.00  0.00     0.043 A 
ATOM     23  C   UNL     1      25.772  19.606 -15.859  1.00  0.00     0.159 A 
ATOM     24  C   UNL     1      25.478  20.959 -15.927  1.00  0.00     0.158 A 
ATOM     25  F   UNL     1      25.468  18.908 -14.761  1.00  0.00    -0.204 F 
ATOM     26  F   UNL     1      24.840  21.562 -14.916  1.00  0.00    -0.204 F 
ENDBRANCH  12  19
ENDBRANCH   3   6
ENDBRANCH   1   2
BRANCH   1  27
ATOM     27  C   UNL     1      32.297  21.729 -17.589  1.00  0.00     0.083 C 
BRANCH  27  28
ATOM     28  C   UNL     1      33.568  21.248 -18.299  1.00  0.00     0.264 C 
BRANCH  28  29
ATOM     29  N   UNL     1      34.537  22.353 -18.666  1.00  0.00    -0.335 N 
ATOM     30  C   UNL     1      34.038  23.737 -18.260  1.00  0.00     0.262 C 
ATOM     31  C   UNL     1      35.052  22.322 -20.075  1.00  0.00     0.262 C 
ATOM     32  C   UNL     1      33.673  24.600 -19.469  1.00  0.00     0.070 C 
ATOM     33  C   UNL     1      33.917  22.617 -21.053  1.00  0.00     0.070 C 
ATOM     34  C   UNL     1      33.013  23.777 -20.583  1.00  0.00     0.030 C 
ATOM     35  H   UNL     1      35.328  22.203 -18.007  1.00  0.00     0.348 HD
BRANCH  34  36
ATOM     36  C   UNL     1      32.541  24.650 -21.730  1.00  0.00    -0.044 A 
ATOM     37  C   UNL     1      33.384  24.968 -22.812  1.00  0.00     0.007 A 
ATOM     38  C   UNL     1      31.234  25.173 -21.712  1.00  0.00     0.007 A 
ATOM     39  C   UNL     1      32.919  25.765 -23.857  1.00  0.00     0.039 A 
ATOM     40  C   UNL     1      30.778  25.983 -22.756  1.00  0.00     0.039 A 
ATOM     41  C   UNL     1      31.621  26.258 -23.826  1.00  0.00     0.123 A 
ATOM     42  F   UNL     1      31.169  27.011 -24.843  1.00  0.00    -0.207 F 
ENDBRANCH  34  36
ENDBRANCH  28  29
ENDBRANCH  27  28
ENDBRANCH   1  27
TORSDOF 8
ENDMDL
MODEL 6
REMARK VINA RESULT:    -5.914      2.768      3.921
REMARK INTER + INTRA:         -10.729
REMARK INTER:                  -8.612
REMARK INTRA:                  -2.117
REMARK UNBOUND:                -2.049
REMARK SMILES O=C1NC(C(F)(F)F)=C(C(=O)NCCC[NH+]2CCC(c3ccc(F)cc3)CC2)C(c2ccc(F)c(F)c2)N1
REMARK SMILES IDX 13 1 12 2 10 3 11 4 9 6 1 7 2 8 3 9 38 10 4 11 29 12 5 15
REMARK SMILES IDX 6 16 7 17 8 18 30 19 31 20 37 21 32 22 35 23 33 24 36 25
REMARK SMILES IDX 34 26 14 27 15 28 16 29 17 30 28 31 18 32 27 33 19 34 20 36
REMARK SMILES IDX 21 37 26 38 22 39 25 40 23 41 24 42
REMARK H PARENT 12 5 3 13 38 14 16 35
ROOT
ATOM      1  C   UNL     1      32.978  20.620 -22.550  1.00  0.00     0.122 C 
ENDROOT
BRANCH   1   2
ATOM      2  N   UNL     1      33.046  22.040 -22.290  1.00  0.00    -0.352 N 
ATOM      3  C   UNL     1      32.588  22.609 -21.129  1.00  0.00     0.251 C 
ATOM      4  O   UNL     1      32.125  21.975 -20.188  1.00  0.00    -0.270 OA
ATOM      5  H   UNL     1      33.350  22.640 -23.053  1.00  0.00     0.163 HD
BRANCH   3   6
ATOM      6  C   UNL     1      32.790  24.065 -21.085  1.00  0.00     0.072 C 
ATOM      7  O   UNL     1      33.152  28.007 -20.365  1.00  0.00    -0.248 OA
ATOM      8  C   UNL     1      33.052  26.802 -20.554  1.00  0.00     0.320 C 
ATOM      9  N   UNL     1      31.999  26.259 -21.230  1.00  0.00    -0.303 N 
ATOM     10  N   UNL     1      33.978  25.921 -20.091  1.00  0.00    -0.327 N 
ATOM     11  C   UNL     1      31.790  24.903 -21.423  1.00  0.00     0.135 C 
ATOM     12  C   UNL     1      34.115  24.566 -20.601  1.00  0.00     0.152 C 
ATOM     13  H   UNL     1      31.275  26.927 -21.497  1.00  0.00     0.171 HD
ATOM     14  H   UNL     1      34.798  26.386 -19.729  1.00  0.00     0.166 HD
BRANCH  11  15
ATOM     15  C   UNL     1      30.462  24.493 -22.005  1.00  0.00     0.431 C 
ATOM     16  F   UNL     1      29.780  23.675 -21.159  1.00  0.00    -0.165 F 
ATOM     17  F   UNL     1      30.575  23.831 -23.191  1.00  0.00    -0.165 F 
ATOM     18  F   UNL     1      29.664  25.569 -22.244  1.00  0.00    -0.165 F 
ENDBRANCH  11  15
BRANCH  12  19
ATOM     19  C   UNL     1      35.230  24.467 -21.632  1.00  0.00    -0.018 A 
ATOM     20  C   UNL     1      35.089  24.961 -22.946  1.00  0.00     0.009 A 
ATOM     21  C   UNL     1      36.458  23.875 -21.273  1.00  0.00     0.048 A 
ATOM     22  C   UNL     1      36.157  24.902 -23.854  1.00  0.00     0.043 A 
ATOM     23  C   UNL     1      37.513  23.817 -22.191  1.00  0.00     0.159 A 
ATOM     24  C   UNL     1      37.361  24.328 -23.471  1.00  0.00     0.158 A 
ATOM     25  F   UNL     1      38.650  23.211 -21.841  1.00  0.00    -0.204 F 
ATOM     26  F   UNL     1      38.373  24.264 -24.346  1.00  0.00    -0.204 F 
ENDBRANCH  12  19
ENDBRANCH   3   6
ENDBRANCH   1   2
BRANCH   1  27
ATOM     27  C   UNL     1      32.072  20.246 -23.720  1.00  0.00     0.083 C 
BRANCH  27  28
ATOM     28  C   UNL     1      30.587  20.612 -23.617  1.00  0.00     0.264 C 
BRANCH  28  29
ATOM     29  N   UNL     1      29.680  19.456 -23.250  1.00  0.00    -0.335 N 
ATOM     30  C   UNL     1      28.207  19.750 -23.519  1.00  0.00     0.262 C 
ATOM     31  C   UNL     1      29.905  18.862 -21.891  1.00  0.00     0.262 C 
ATOM     32  C   UNL     1      27.399  19.892 -22.228  1.00  0.00     0.070 C 
ATOM     33  C   UNL     1      29.517  19.867 -20.810  1.00  0.00     0.070 C 
ATOM     34  C   UNL     1      28.196  20.602 -21.127  1.00  0.00     0.030 C 
ATOM     35  H   UNL     1      29.898  18.745 -23.978  1.00  0.00     0.348 HD
BRANCH  34  36
ATOM     36  C   UNL     1      27.356  20.850 -19.889  1.00  0.00    -0.044 A 
ATOM     37  C   UNL     1      26.090  20.256 -19.723  1.00  0.00     0.007 A 
ATOM     38  C   UNL     1      27.840  21.707 -18.881  1.00  0.00     0.007 A 
ATOM     39  C   UNL     1      25.345  20.495 -18.570  1.00  0.00     0.039 A 
ATOM     40  C   UNL     1      27.083  21.953 -17.733  1.00  0.00     0.039 A 
ATOM     41  C   UNL     1      25.849  21.332 -17.582  1.00  0.00     0.123 A 
ATOM     42  F   UNL     1      25.137  21.547 -16.463  1.00  0.00    -0.207 F 
ENDBRANCH  34  36
ENDBRANCH  28  29
ENDBRANCH  27  28
ENDBRANCH   1  27
TORSDOF 8
ENDMDL
MODEL 7
REMARK VINA RESULT:    -5.868      5.424      8.774
REMARK INTER + INTRA:         -10.661
REMARK INTER:                  -8.688
REMARK INTRA:                  -1.973
REMARK UNBOUND:                -2.049
REMARK SMILES O=C1NC(C(F)(F)F)=C(C(=O)NCCC[NH+]2CCC(c3ccc(F)cc3)CC2)C(c2ccc(F)c(F)c2)N1
REMARK SMILES IDX 13 1 12 2 10 3 11 4 9 6 1 7 2 8 3 9 38 10 4 11 29 12 5 15
REMARK SMILES IDX 6 16 7 17 8 18 30 19 31 20 37 21 32 22 35 23 33 24 36 25
REMARK SMILES IDX 34 26 14 27 15 28 16 29 17 30 28 31 18 32 27 33 19 34 20 36
REMARK SMILES IDX 21 37 26 38 22 39 25 40 23 41 24 42
REMARK H PARENT 12 5 3 13 38 14 16 35
ROOT
ATOM      1  C   UNL     1      35.325  24.269 -25.874  1.00  0.00     0.122 C 
ENDROOT
BRANCH   1   2
ATOM      2  N   UNL     1      34.800  24.061 -24.544  1.00  0.00    -0.352 N 
ATOM      3  C   UNL     1      33.855  24.878 -23.977  1.00  0.00     0.251 C 
ATOM      4  O   UNL     1      33.333  25.826 -24.551  1.00  0.00    -0.270 OA
ATOM      5  H   UNL     1      35.237  23.338 -23.977  1.00  0.00     0.163 HD
BRANCH   3   6
ATOM      6  C   UNL     1      33.458  24.447 -22.628  1.00  0.00     0.072 C 
ATOM      7  O   UNL     1      32.709  22.746 -19.060  1.00  0.00    -0.248 OA
ATOM      8  C   UNL     1      32.966  23.251 -20.144  1.00  0.00     0.320 C 
ATOM      9  N   UNL     1      32.067  23.264 -21.170  1.00  0.00    -0.303 N 
ATOM     10  N   UNL     1      34.172  23.822 -20.404  1.00  0.00    -0.327 N 
ATOM     11  C   UNL     1      32.315  23.758 -22.440  1.00  0.00     0.135 C 
ATOM     12  C   UNL     1      34.394  24.752 -21.501  1.00  0.00     0.152 C 
ATOM     13  H   UNL     1      31.200  22.759 -20.983  1.00  0.00     0.171 HD
ATOM     14  H   UNL     1      34.738  23.911 -19.573  1.00  0.00     0.166 HD
BRANCH  11  15
ATOM     15  C   UNL     1      31.272  23.486 -23.494  1.00  0.00     0.431 C 
ATOM     16  F   UNL     1      31.768  22.708 -24.494  1.00  0.00    -0.165 F 
ATOM     17  F   UNL     1      30.788  24.619 -24.077  1.00  0.00    -0.165 F 
ATOM     18  F   UNL     1      30.196  22.833 -22.980  1.00  0.00    -0.165 F 
ENDBRANCH  11  15
BRANCH  12  19
ATOM     19  C   UNL     1      34.345  26.197 -21.027  1.00  0.00    -0.018 A 
ATOM     20  C   UNL     1      33.210  26.744 -20.394  1.00  0.00     0.009 A 
ATOM     21  C   UNL     1      35.469  27.027 -21.208  1.00  0.00     0.048 A 
ATOM     22  C   UNL     1      33.219  28.066 -19.920  1.00  0.00     0.043 A 
ATOM     23  C   UNL     1      35.462  28.344 -20.737  1.00  0.00     0.159 A 
ATOM     24  C   UNL     1      34.344  28.858 -20.097  1.00  0.00     0.158 A 
ATOM     25  F   UNL     1      36.524  29.124 -20.961  1.00  0.00    -0.204 F 
ATOM     26  F   UNL     1      34.343  30.121 -19.654  1.00  0.00    -0.204 F 
ENDBRANCH  12  19
ENDBRANCH   3   6
ENDBRANCH   1   2
BRANCH   1  27
ATOM     27  C   UNL     1      36.736  23.723 -26.077  1.00  0.00     0.083 C 
BRANCH  27  28
ATOM     28  C   UNL     1      37.063  22.352 -25.475  1.00  0.00     0.264 C 
BRANCH  28  29
ATOM     29  N   UNL     1      37.200  21.237 -26.491  1.00  0.00    -0.335 N 
ATOM     30  C   UNL     1      36.968  21.710 -27.923  1.00  0.00     0.262 C 
ATOM     31  C   UNL     1      36.449  19.977 -26.177  1.00  0.00     0.262 C 
ATOM     32  C   UNL     1      35.672  21.153 -28.515  1.00  0.00     0.070 C 
ATOM     33  C   UNL     1      34.946  20.231 -26.252  1.00  0.00     0.070 C 
ATOM     34  C   UNL     1      34.548  21.088 -27.473  1.00  0.00     0.030 C 
ATOM     35  H   UNL     1      38.222  21.040 -26.489  1.00  0.00     0.348 HD
BRANCH  34  36
ATOM     36  C   UNL     1      33.231  20.651 -28.087  1.00  0.00    -0.044 A 
ATOM     37  C   UNL     1      32.966  20.810 -29.460  1.00  0.00     0.007 A 
ATOM     38  C   UNL     1      32.237  20.084 -27.266  1.00  0.00     0.007 A 
ATOM     39  C   UNL     1      31.751  20.390 -29.997  1.00  0.00     0.039 A 
ATOM     40  C   UNL     1      31.015  19.676 -27.808  1.00  0.00     0.039 A 
ATOM     41  C   UNL     1      30.790  19.819 -29.172  1.00  0.00     0.123 A 
ATOM     42  F   UNL     1      29.627  19.398 -29.694  1.00  0.00    -0.207 F 
ENDBRANCH  34  36
ENDBRANCH  28  29
ENDBRANCH  27  28
ENDBRANCH   1  27
TORSDOF 8
ENDMDL
MODEL 8
REMARK VINA RESULT:    -5.814      3.225      8.824
REMARK INTER + INTRA:         -10.582
REMARK INTER:                  -9.452
REMARK INTRA:                  -1.130
REMARK UNBOUND:                -2.049
REMARK SMILES O=C1NC(C(F)(F)F)=C(C(=O)NCCC[NH+]2CCC(c3ccc(F)cc3)CC2)C(c2ccc(F)c(F)c2)N1
REMARK SMILES IDX 13 1 12 2 10 3 11 4 9 6 1 7 2 8 3 9 38 10 4 11 29 12 5 15
REMARK SMILES IDX 6 16 7 17 8 18 30 19 31 20 37 21 32 22 35 23 33 24 36 25
REMARK SMILES IDX 34 26 14 27 15 28 16 29 17 30 28 31 18 32 27 33 19 34 20 36
REMARK SMILES IDX 21 37 26 38 22 39 25 40 23 41 24 42
REMARK H PARENT 12 5 3 13 38 14 16 35
ROOT
ATOM      1  C   UNL     1      33.337  21.555 -20.816  1.00  0.00     0.122 C 
ENDROOT
BRANCH   1   2
ATOM      2  N   UNL     1      32.065  21.102 -21.331  1.00  0.00    -0.352 N 
ATOM      3  C   UNL     1      30.882  21.748 -21.070  1.00  0.00     0.251 C 
ATOM      4  O   UNL     1      30.793  22.784 -20.423  1.00  0.00    -0.270 OA
ATOM      5  H   UNL     1      32.048  20.208 -21.815  1.00  0.00     0.163 HD
BRANCH   3   6
ATOM      6  C   UNL     1      29.727  21.115 -21.726  1.00  0.00     0.072 C 
ATOM      7  O   UNL     1      26.984  18.959 -23.729  1.00  0.00    -0.248 OA
ATOM      8  C   UNL     1      27.834  19.588 -23.112  1.00  0.00     0.320 C 
ATOM      9  N   UNL     1      28.356  20.757 -23.584  1.00  0.00    -0.303 N 
ATOM     10  N   UNL     1      28.324  19.156 -21.920  1.00  0.00    -0.327 N 
ATOM     11  C   UNL     1      29.363  21.483 -22.970  1.00  0.00     0.135 C 
ATOM     12  C   UNL     1      29.022  20.023 -20.984  1.00  0.00     0.152 C 
ATOM     13  H   UNL     1      28.035  21.021 -24.516  1.00  0.00     0.171 HD
ATOM     14  H   UNL     1      27.803  18.372 -21.556  1.00  0.00     0.166 HD
BRANCH  11  15
ATOM     15  C   UNL     1      29.953  22.628 -23.754  1.00  0.00     0.431 C 
ATOM     16  F   UNL     1      31.063  22.242 -24.439  1.00  0.00    -0.165 F 
ATOM     17  F   UNL     1      30.318  23.683 -22.971  1.00  0.00    -0.165 F 
ATOM     18  F   UNL     1      29.073  23.118 -24.667  1.00  0.00    -0.165 F 
ENDBRANCH  11  15
BRANCH  12  19
ATOM     19  C   UNL     1      28.095  20.519 -19.884  1.00  0.00    -0.018 A 
ATOM     20  C   UNL     1      26.690  20.463 -20.000  1.00  0.00     0.009 A 
ATOM     21  C   UNL     1      28.643  21.043 -18.696  1.00  0.00     0.048 A 
ATOM     22  C   UNL     1      25.865  20.879 -18.942  1.00  0.00     0.043 A 
ATOM     23  C   UNL     1      27.809  21.460 -17.653  1.00  0.00     0.159 A 
ATOM     24  C   UNL     1      26.431  21.377 -17.777  1.00  0.00     0.158 A 
ATOM     25  F   UNL     1      28.353  21.995 -16.556  1.00  0.00    -0.204 F 
ATOM     26  F   UNL     1      25.639  21.783 -16.777  1.00  0.00    -0.204 F 
ENDBRANCH  12  19
ENDBRANCH   3   6
ENDBRANCH   1   2
BRANCH   1  27
ATOM     27  C   UNL     1      34.315  22.014 -21.895  1.00  0.00     0.083 C 
BRANCH  27  28
ATOM     28  C   UNL     1      33.730  22.504 -23.224  1.00  0.00     0.264 C 
BRANCH  28  29
ATOM     29  N   UNL     1      34.517  23.619 -23.882  1.00  0.00    -0.335 N 
ATOM     30  C   UNL     1      35.823  23.930 -23.156  1.00  0.00     0.262 C 
ATOM     31  C   UNL     1      33.737  24.857 -24.210  1.00  0.00     0.262 C 
ATOM     32  C   UNL     1      35.792  25.295 -22.467  1.00  0.00     0.070 C 
ATOM     33  C   UNL     1      33.298  25.555 -22.925  1.00  0.00     0.070 C 
ATOM     34  C   UNL     1      34.416  25.601 -21.862  1.00  0.00     0.030 C 
ATOM     35  H   UNL     1      34.856  23.181 -24.763  1.00  0.00     0.348 HD
BRANCH  34  36
ATOM     36  C   UNL     1      34.418  26.898 -21.075  1.00  0.00    -0.044 A 
ATOM     37  C   UNL     1      33.301  27.310 -20.324  1.00  0.00     0.007 A 
ATOM     38  C   UNL     1      35.559  27.725 -21.102  1.00  0.00     0.007 A 
ATOM     39  C   UNL     1      33.336  28.502 -19.604  1.00  0.00     0.039 A 
ATOM     40  C   UNL     1      35.583  28.925 -20.388  1.00  0.00     0.039 A 
ATOM     41  C   UNL     1      34.477  29.295 -19.633  1.00  0.00     0.123 A 
ATOM     42  F   UNL     1      34.515  30.434 -18.923  1.00  0.00    -0.207 F 
ENDBRANCH  34  36
ENDBRANCH  28  29
ENDBRANCH  27  28
ENDBRANCH   1  27
TORSDOF 8
ENDMDL
MODEL 9
REMARK VINA RESULT:    -5.780      2.519      4.423
REMARK INTER + INTRA:         -10.532
REMARK INTER:                  -8.061
REMARK INTRA:                  -2.471
REMARK UNBOUND:                -2.049
REMARK SMILES O=C1NC(C(F)(F)F)=C(C(=O)NCCC[NH+]2CCC(c3ccc(F)cc3)CC2)C(c2ccc(F)c(F)c2)N1
REMARK SMILES IDX 13 1 12 2 10 3 11 4 9 6 1 7 2 8 3 9 38 10 4 11 29 12 5 15
REMARK SMILES IDX 6 16 7 17 8 18 30 19 31 20 37 21 32 22 35 23 33 24 36 25
REMARK SMILES IDX 34 26 14 27 15 28 16 29 17 30 28 31 18 32 27 33 19 34 20 36
REMARK SMILES IDX 21 37 26 38 22 39 25 40 23 41 24 42
REMARK H PARENT 12 5 3 13 38 14 16 35
ROOT
ATOM      1  C   UNL     1      30.564  22.913 -23.971  1.00  0.00     0.122 C 
ENDROOT
BRANCH   1   2
ATOM      2  N   UNL     1      31.481  23.222 -22.897  1.00  0.00    -0.352 N 
ATOM      3  C   UNL     1      31.064  23.606 -21.648  1.00  0.00     0.251 C 
ATOM      4  O   UNL     1      29.890  23.679 -21.307  1.00  0.00    -0.270 OA
ATOM      5  H   UNL     1      32.472  23.255 -23.124  1.00  0.00     0.163 HD
BRANCH   3   6
ATOM      6  C   UNL     1      32.180  23.839 -20.718  1.00  0.00     0.072 C 
ATOM      7  O   UNL     1      34.785  24.632 -17.756  1.00  0.00    -0.248 OA
ATOM      8  C   UNL     1      33.973  24.379 -18.636  1.00  0.00     0.320 C 
ATOM      9  N   UNL     1      33.720  25.243 -19.661  1.00  0.00    -0.303 N 
ATOM     10  N   UNL     1      33.256  23.223 -18.642  1.00  0.00    -0.327 N 
ATOM     11  C   UNL     1      32.770  25.049 -20.650  1.00  0.00     0.135 C 
ATOM     12  C   UNL     1      32.586  22.708 -19.826  1.00  0.00     0.152 C 
ATOM     13  H   UNL     1      34.207  26.137 -19.593  1.00  0.00     0.171 HD
ATOM     14  H   UNL     1      33.585  22.568 -17.949  1.00  0.00     0.166 HD
BRANCH  11  15
ATOM     15  C   UNL     1      32.491  26.213 -21.566  1.00  0.00     0.431 C 
ATOM     16  F   UNL     1      32.947  27.381 -21.039  1.00  0.00    -0.165 F 
ATOM     17  F   UNL     1      31.164  26.387 -21.826  1.00  0.00    -0.165 F 
ATOM     18  F   UNL     1      33.099  26.059 -22.773  1.00  0.00    -0.165 F 
ENDBRANCH  11  15
BRANCH  12  19
ATOM     19  C   UNL     1      33.419  21.639 -20.518  1.00  0.00    -0.018 A 
ATOM     20  C   UNL     1      33.187  20.261 -20.328  1.00  0.00     0.009 A 
ATOM     21  C   UNL     1      34.454  22.024 -21.393  1.00  0.00     0.048 A 
ATOM     22  C   UNL     1      33.939  19.303 -21.025  1.00  0.00     0.043 A 
ATOM     23  C   UNL     1      35.201  21.058 -22.077  1.00  0.00     0.159 A 
ATOM     24  C   UNL     1      34.943  19.708 -21.894  1.00  0.00     0.158 A 
ATOM     25  F   UNL     1      36.206  21.447 -22.866  1.00  0.00    -0.204 F 
ATOM     26  F   UNL     1      35.665  18.789 -22.547  1.00  0.00    -0.204 F 
ENDBRANCH  12  19
ENDBRANCH   3   6
ENDBRANCH   1   2
BRANCH   1  27
ATOM     27  C   UNL     1      30.644  21.469 -24.459  1.00  0.00     0.083 C 
BRANCH  27  28
ATOM     28  C   UNL     1      31.050  20.395 -23.444  1.00  0.00     0.264 C 
BRANCH  28  29
ATOM     29  N   UNL     1      29.997  19.334 -23.199  1.00  0.00    -0.335 N 
ATOM     30  C   UNL     1      28.589  19.806 -23.549  1.00  0.00     0.262 C 
ATOM     31  C   UNL     1      30.056  18.658 -21.861  1.00  0.00     0.262 C 
ATOM     32  C   UNL     1      27.710  19.981 -22.309  1.00  0.00     0.070 C 
ATOM     33  C   UNL     1      29.705  19.652 -20.756  1.00  0.00     0.070 C 
ATOM     34  C   UNL     1      28.500  20.545 -21.122  1.00  0.00     0.030 C 
ATOM     35  H   UNL     1      30.186  18.636 -23.947  1.00  0.00     0.348 HD
BRANCH  34  36
ATOM     36  C   UNL     1      27.605  20.832 -19.931  1.00  0.00    -0.044 A 
ATOM     37  C   UNL     1      28.020  21.671 -18.879  1.00  0.00     0.007 A 
ATOM     38  C   UNL     1      26.331  20.236 -19.861  1.00  0.00     0.007 A 
ATOM     39  C   UNL     1      27.172  21.923 -17.802  1.00  0.00     0.039 A 
ATOM     40  C   UNL     1      25.490  20.483 -18.772  1.00  0.00     0.039 A 
ATOM     41  C   UNL     1      25.913  21.337 -17.761  1.00  0.00     0.123 A 
ATOM     42  F   UNL     1      25.091  21.596 -16.731  1.00  0.00    -0.207 F 
ENDBRANCH  34  36
ENDBRANCH  28  29
ENDBRANCH  27  28
ENDBRANCH   1  27
TORSDOF 8
ENDMDL
