MODEL 1
REMARK VINA RESULT:    -6.349      0.000      0.000
REMARK INTER + INTRA:          -9.125
REMARK INTER:                  -8.205
REMARK INTRA:                  -0.920
REMARK UNBOUND:                -0.920
REMARK SMILES CC(C)Oc1cccc(-n2c(NNC(=O)Nc3cccc(C#N)c3)nc3ccccc3c2=O)c1
REMARK SMILES IDX 5 1 6 2 7 3 8 4 9 5 34 6 4 7 2 8 1 9 3 10 10 11 11 12 32 13
REMARK SMILES IDX 12 14 25 15 31 16 33 17 26 18 30 19 27 20 29 21 28 22 13 24
REMARK SMILES IDX 14 25 15 26 16 27 17 30 18 31 24 32 19 33 21 34 20 35 22 36
REMARK SMILES IDX 23 37
REMARK H PARENT 12 23 13 28 16 29
ROOT
ATOM      1  C   UNL     1      32.124  23.806 -20.326  1.00  0.00     0.121 A 
ATOM      2  C   UNL     1      32.988  23.224 -19.403  1.00  0.00     0.046 A 
ATOM      3  C   UNL     1      32.708  21.959 -18.885  1.00  0.00     0.006 A 
ATOM      4  C   UNL     1      31.555  21.277 -19.278  1.00  0.00     0.027 A 
ATOM      5  C   UNL     1      30.657  21.852 -20.190  1.00  0.00     0.056 A 
ATOM      6  C   UNL     1      30.967  23.117 -20.712  1.00  0.00     0.073 A 
ENDROOT
BRANCH   1   7
ATOM      7  O   UNL     1      32.267  25.035 -20.905  1.00  0.00    -0.491 OA
BRANCH   7   8
ATOM      8  C   UNL     1      32.522  25.122 -22.311  1.00  0.00     0.167 C 
ATOM      9  C   UNL     1      33.902  25.727 -22.548  1.00  0.00     0.052 C 
ATOM     10  C   UNL     1      31.445  26.031 -22.897  1.00  0.00     0.052 C 
ENDBRANCH   7   8
ENDBRANCH   1   7
BRANCH   5  11
ATOM     11  N   UNL     1      29.459  21.158 -20.587  1.00  0.00    -0.245 N 
ATOM     12  C   UNL     1      29.363  20.529 -21.839  1.00  0.00     0.230 C 
ATOM     13  C   UNL     1      28.369  21.174 -19.704  1.00  0.00     0.267 C 
ATOM     14  N   UNL     1      30.489  20.404 -22.648  1.00  0.00    -0.265 N 
ATOM     15  N   UNL     1      28.247  20.001 -22.277  1.00  0.00    -0.213 NA
ATOM     16  C   UNL     1      27.123  20.556 -20.184  1.00  0.00     0.066 A 
ATOM     17  O   UNL     1      28.345  21.699 -18.590  1.00  0.00    -0.268 OA
ATOM     18  C   UNL     1      27.114  20.019 -21.464  1.00  0.00     0.080 A 
ATOM     19  C   UNL     1      25.970  20.533 -19.387  1.00  0.00     0.016 A 
ATOM     20  C   UNL     1      25.932  19.451 -21.950  1.00  0.00     0.029 A 
ATOM     21  C   UNL     1      24.796  19.964 -19.880  1.00  0.00     0.001 A 
ATOM     22  C   UNL     1      24.777  19.423 -21.163  1.00  0.00     0.002 A 
ATOM     23  H   UNL     1      31.370  20.296 -22.133  1.00  0.00     0.191 HD
BRANCH  14  24
ATOM     24  N   UNL     1      30.369  19.408 -23.665  1.00  0.00    -0.249 N 
ATOM     25  C   UNL     1      30.444  19.906 -24.962  1.00  0.00     0.337 C 
ATOM     26  O   UNL     1      30.415  21.112 -25.188  1.00  0.00    -0.247 OA
ATOM     27  N   UNL     1      30.521  18.885 -25.885  1.00  0.00    -0.307 N 
ATOM     28  H   UNL     1      30.982  18.617 -23.458  1.00  0.00     0.193 HD
ATOM     29  H   UNL     1      30.358  17.960 -25.513  1.00  0.00     0.171 HD
BRANCH  27  30
ATOM     30  C   UNL     1      30.657  18.996 -27.281  1.00  0.00     0.044 A 
ATOM     31  C   UNL     1      29.849  18.167 -28.070  1.00  0.00     0.026 A 
ATOM     32  C   UNL     1      31.551  19.867 -27.909  1.00  0.00     0.045 A 
ATOM     33  C   UNL     1      29.924  18.211 -29.464  1.00  0.00     0.004 A 
ATOM     34  C   UNL     1      31.630  19.914 -29.309  1.00  0.00     0.054 A 
ATOM     35  C   UNL     1      30.814  19.085 -30.084  1.00  0.00     0.019 A 
ATOM     36  C   UNL     1      32.549  20.811 -29.947  1.00  0.00     0.099 C 
ATOM     37  N   UNL     1      33.287  21.530 -30.482  1.00  0.00    -0.192 NA
ENDBRANCH  27  30
ENDBRANCH  14  24
ENDBRANCH   5  11
TORSDOF 5
ENDMDL
MODEL 2
REMARK VINA RESULT:    -6.041      1.827      5.410
REMARK INTER + INTRA:          -8.727
REMARK INTER:                  -7.852
REMARK INTRA:                  -0.876
REMARK UNBOUND:                -0.920
REMARK SMILES CC(C)Oc1cccc(-n2c(NNC(=O)Nc3cccc(C#N)c3)nc3ccccc3c2=O)c1
REMARK SMILES IDX 5 1 6 2 7 3 8 4 9 5 34 6 4 7 2 8 1 9 3 10 10 11 11 12 32 13
REMARK SMILES IDX 12 14 25 15 31 16 33 17 26 18 30 19 27 20 29 21 28 22 13 24
REMARK SMILES IDX 14 25 15 26 16 27 17 30 18 31 24 32 19 33 21 34 20 35 22 36
REMARK SMILES IDX 23 37
REMARK H PARENT 12 23 13 28 16 29
ROOT
ATOM      1  C   UNL     1      27.866  19.440 -20.960  1.00  0.00     0.121 A 
ATOM      2  C   UNL     1      28.206  19.151 -19.641  1.00  0.00     0.046 A 
ATOM      3  C   UNL     1      29.326  19.749 -19.062  1.00  0.00     0.006 A 
ATOM      4  C   UNL     1      30.118  20.627 -19.804  1.00  0.00     0.027 A 
ATOM      5  C   UNL     1      29.808  20.916 -21.142  1.00  0.00     0.056 A 
ATOM      6  C   UNL     1      28.667  20.318 -21.699  1.00  0.00     0.073 A 
ENDROOT
BRANCH   1   7
ATOM      7  O   UNL     1      26.808  18.923 -21.653  1.00  0.00    -0.491 OA
BRANCH   7   8
ATOM      8  C   UNL     1      25.788  19.804 -22.135  1.00  0.00     0.167 C 
ATOM      9  C   UNL     1      24.762  20.054 -21.034  1.00  0.00     0.052 C 
ATOM     10  C   UNL     1      25.125  19.104 -23.318  1.00  0.00     0.052 C 
ENDBRANCH   7   8
ENDBRANCH   1   7
BRANCH   5  11
ATOM     11  N   UNL     1      30.632  21.810 -21.916  1.00  0.00    -0.245 N 
ATOM     12  C   UNL     1      31.674  21.324 -22.722  1.00  0.00     0.230 C 
ATOM     13  C   UNL     1      30.395  23.187 -21.797  1.00  0.00     0.267 C 
ATOM     14  N   UNL     1      31.814  19.956 -22.937  1.00  0.00    -0.265 N 
ATOM     15  N   UNL     1      32.517  22.117 -23.336  1.00  0.00    -0.213 NA
ATOM     16  C   UNL     1      31.325  24.078 -22.508  1.00  0.00     0.066 A 
ATOM     17  O   UNL     1      29.515  23.717 -21.117  1.00  0.00    -0.268 OA
ATOM     18  C   UNL     1      32.362  23.499 -23.226  1.00  0.00     0.080 A 
ATOM     19  C   UNL     1      31.186  25.473 -22.443  1.00  0.00     0.016 A 
ATOM     20  C   UNL     1      33.272  24.330 -23.887  1.00  0.00     0.029 A 
ATOM     21  C   UNL     1      32.099  26.292 -23.106  1.00  0.00     0.001 A 
ATOM     22  C   UNL     1      33.143  25.720 -23.828  1.00  0.00     0.002 A 
ATOM     23  H   UNL     1      30.929  19.436 -22.947  1.00  0.00     0.191 HD
BRANCH  14  24
ATOM     24  N   UNL     1      32.614  19.621 -24.072  1.00  0.00    -0.249 N 
ATOM     25  C   UNL     1      31.925  19.644 -25.282  1.00  0.00     0.337 C 
ATOM     26  O   UNL     1      30.704  19.747 -25.321  1.00  0.00    -0.247 OA
ATOM     27  N   UNL     1      32.788  19.509 -26.348  1.00  0.00    -0.307 N 
ATOM     28  H   UNL     1      33.491  20.145 -24.052  1.00  0.00     0.193 HD
ATOM     29  H   UNL     1      33.736  19.264 -26.104  1.00  0.00     0.171 HD
BRANCH  27  30
ATOM     30  C   UNL     1      32.470  19.534 -27.720  1.00  0.00     0.044 A 
ATOM     31  C   UNL     1      31.637  18.516 -28.201  1.00  0.00     0.026 A 
ATOM     32  C   UNL     1      32.945  20.499 -28.611  1.00  0.00     0.045 A 
ATOM     33  C   UNL     1      31.275  18.465 -29.550  1.00  0.00     0.004 A 
ATOM     34  C   UNL     1      32.585  20.452 -29.965  1.00  0.00     0.054 A 
ATOM     35  C   UNL     1      31.749  19.434 -30.432  1.00  0.00     0.019 A 
ATOM     36  C   UNL     1      33.075  21.446 -30.875  1.00  0.00     0.099 C 
ATOM     37  N   UNL     1      33.463  22.242 -31.626  1.00  0.00    -0.192 NA
ENDBRANCH  27  30
ENDBRANCH  14  24
ENDBRANCH   5  11
TORSDOF 5
ENDMDL
MODEL 3
REMARK VINA RESULT:    -5.936      3.629      8.964
REMARK INTER + INTRA:          -8.591
REMARK INTER:                  -7.673
REMARK INTRA:                  -0.917
REMARK UNBOUND:                -0.920
REMARK SMILES CC(C)Oc1cccc(-n2c(NNC(=O)Nc3cccc(C#N)c3)nc3ccccc3c2=O)c1
REMARK SMILES IDX 5 1 6 2 7 3 8 4 9 5 34 6 4 7 2 8 1 9 3 10 10 11 11 12 32 13
REMARK SMILES IDX 12 14 25 15 31 16 33 17 26 18 30 19 27 20 29 21 28 22 13 24
REMARK SMILES IDX 14 25 15 26 16 27 17 30 18 31 24 32 19 33 21 34 20 35 22 36
REMARK SMILES IDX 23 37
REMARK H PARENT 12 23 13 28 16 29
ROOT
ATOM      1  C   UNL     1      27.939  19.946 -20.511  1.00  0.00     0.121 A 
ATOM      2  C   UNL     1      28.154  20.134 -19.148  1.00  0.00     0.046 A 
ATOM      3  C   UNL     1      29.331  20.738 -18.703  1.00  0.00     0.006 A 
ATOM      4  C   UNL     1      30.303  21.143 -19.620  1.00  0.00     0.027 A 
ATOM      5  C   UNL     1      30.120  20.943 -20.996  1.00  0.00     0.056 A 
ATOM      6  C   UNL     1      28.921  20.351 -21.423  1.00  0.00     0.073 A 
ENDROOT
BRANCH   1   7
ATOM      7  O   UNL     1      26.844  19.364 -21.083  1.00  0.00    -0.491 OA
BRANCH   7   8
ATOM      8  C   UNL     1      25.736  20.184 -21.470  1.00  0.00     0.167 C 
ATOM      9  C   UNL     1      24.682  20.179 -20.367  1.00  0.00     0.052 C 
ATOM     10  C   UNL     1      25.161  19.574 -22.745  1.00  0.00     0.052 C 
ENDBRANCH   7   8
ENDBRANCH   1   7
BRANCH   5  11
ATOM     11  N   UNL     1      31.128  21.346 -21.943  1.00  0.00    -0.245 N 
ATOM     12  C   UNL     1      31.226  22.678 -22.378  1.00  0.00     0.230 C 
ATOM     13  C   UNL     1      31.976  20.355 -22.460  1.00  0.00     0.267 C 
ATOM     14  N   UNL     1      30.472  23.674 -21.763  1.00  0.00    -0.265 N 
ATOM     15  N   UNL     1      32.047  23.048 -23.330  1.00  0.00    -0.213 NA
ATOM     16  C   UNL     1      32.917  20.776 -23.509  1.00  0.00     0.066 A 
ATOM     17  O   UNL     1      31.970  19.163 -22.152  1.00  0.00    -0.268 OA
ATOM     18  C   UNL     1      32.890  22.103 -23.914  1.00  0.00     0.080 A 
ATOM     19  C   UNL     1      33.798  19.861 -24.103  1.00  0.00     0.016 A 
ATOM     20  C   UNL     1      33.759  22.517 -24.930  1.00  0.00     0.029 A 
ATOM     21  C   UNL     1      34.660  20.283 -25.114  1.00  0.00     0.001 A 
ATOM     22  C   UNL     1      34.640  21.613 -25.528  1.00  0.00     0.002 A 
ATOM     23  H   UNL     1      30.298  23.516 -20.764  1.00  0.00     0.191 HD
BRANCH  14  24
ATOM     24  N   UNL     1      30.955  24.998 -21.993  1.00  0.00    -0.249 N 
ATOM     25  C   UNL     1      31.942  25.408 -21.102  1.00  0.00     0.337 C 
ATOM     26  O   UNL     1      32.213  24.753 -20.101  1.00  0.00    -0.247 OA
ATOM     27  N   UNL     1      32.501  26.605 -21.494  1.00  0.00    -0.307 N 
ATOM     28  H   UNL     1      31.170  25.127 -22.984  1.00  0.00     0.193 HD
ATOM     29  H   UNL     1      32.024  27.072 -22.252  1.00  0.00     0.171 HD
BRANCH  27  30
ATOM     30  C   UNL     1      33.555  27.305 -20.877  1.00  0.00     0.044 A 
ATOM     31  C   UNL     1      34.853  27.035 -21.330  1.00  0.00     0.026 A 
ATOM     32  C   UNL     1      33.377  28.231 -19.846  1.00  0.00     0.045 A 
ATOM     33  C   UNL     1      35.956  27.682 -20.770  1.00  0.00     0.004 A 
ATOM     34  C   UNL     1      34.481  28.884 -19.280  1.00  0.00     0.054 A 
ATOM     35  C   UNL     1      35.771  28.608 -19.745  1.00  0.00     0.019 A 
ATOM     36  C   UNL     1      34.292  29.833 -18.223  1.00  0.00     0.099 C 
ATOM     37  N   UNL     1      34.158  30.605 -17.365  1.00  0.00    -0.192 NA
ENDBRANCH  27  30
ENDBRANCH  14  24
ENDBRANCH   5  11
TORSDOF 5
ENDMDL
MODEL 4
REMARK VINA RESULT:    -5.920      2.896      8.173
REMARK INTER + INTRA:          -8.571
REMARK INTER:                  -7.475
REMARK INTRA:                  -1.096
REMARK UNBOUND:                -0.920
REMARK SMILES CC(C)Oc1cccc(-n2c(NNC(=O)Nc3cccc(C#N)c3)nc3ccccc3c2=O)c1
REMARK SMILES IDX 5 1 6 2 7 3 8 4 9 5 34 6 4 7 2 8 1 9 3 10 10 11 11 12 32 13
REMARK SMILES IDX 12 14 25 15 31 16 33 17 26 18 30 19 27 20 29 21 28 22 13 24
REMARK SMILES IDX 14 25 15 26 16 27 17 30 18 31 24 32 19 33 21 34 20 35 22 36
REMARK SMILES IDX 23 37
REMARK H PARENT 12 23 13 28 16 29
ROOT
ATOM      1  C   UNL     1      27.700  20.074 -20.210  1.00  0.00     0.121 A 
ATOM      2  C   UNL     1      26.465  19.900 -20.830  1.00  0.00     0.046 A 
ATOM      3  C   UNL     1      26.381  19.875 -22.223  1.00  0.00     0.006 A 
ATOM      4  C   UNL     1      27.529  20.037 -23.000  1.00  0.00     0.027 A 
ATOM      5  C   UNL     1      28.781  20.236 -22.398  1.00  0.00     0.056 A 
ATOM      6  C   UNL     1      28.846  20.239 -20.996  1.00  0.00     0.073 A 
ENDROOT
BRANCH   1   7
ATOM      7  O   UNL     1      27.927  20.128 -18.863  1.00  0.00    -0.491 OA
BRANCH   7   8
ATOM      8  C   UNL     1      27.983  21.402 -18.213  1.00  0.00     0.167 C 
ATOM      9  C   UNL     1      28.970  21.345 -17.051  1.00  0.00     0.052 C 
ATOM     10  C   UNL     1      26.578  21.691 -17.692  1.00  0.00     0.052 C 
ENDBRANCH   7   8
ENDBRANCH   1   7
BRANCH   5  11
ATOM     11  N   UNL     1      29.966  20.418 -23.197  1.00  0.00    -0.245 N 
ATOM     12  C   UNL     1      30.327  21.685 -23.684  1.00  0.00     0.230 C 
ATOM     13  C   UNL     1      30.720  19.280 -23.520  1.00  0.00     0.267 C 
ATOM     14  N   UNL     1      29.651  22.822 -23.249  1.00  0.00    -0.265 N 
ATOM     15  N   UNL     1      31.324  21.861 -24.515  1.00  0.00    -0.213 NA
ATOM     16  C   UNL     1      31.858  19.482 -24.431  1.00  0.00     0.066 A 
ATOM     17  O   UNL     1      30.490  18.128 -23.152  1.00  0.00    -0.268 OA
ATOM     18  C   UNL     1      32.091  20.764 -24.908  1.00  0.00     0.080 A 
ATOM     19  C   UNL     1      32.667  18.408 -24.830  1.00  0.00     0.016 A 
ATOM     20  C   UNL     1      33.151  20.972 -25.797  1.00  0.00     0.029 A 
ATOM     21  C   UNL     1      33.722  18.625 -25.716  1.00  0.00     0.001 A 
ATOM     22  C   UNL     1      33.963  19.909 -26.200  1.00  0.00     0.002 A 
ATOM     23  H   UNL     1      29.311  22.768 -22.282  1.00  0.00     0.191 HD
BRANCH  14  24
ATOM     24  N   UNL     1      30.357  24.043 -23.473  1.00  0.00    -0.249 N 
ATOM     25  C   UNL     1      31.216  24.403 -22.440  1.00  0.00     0.337 C 
ATOM     26  O   UNL     1      31.203  23.817 -21.362  1.00  0.00    -0.247 OA
ATOM     27  N   UNL     1      32.007  25.473 -22.799  1.00  0.00    -0.307 N 
ATOM     28  H   UNL     1      30.764  24.048 -24.411  1.00  0.00     0.193 HD
ATOM     29  H   UNL     1      31.749  25.924 -23.665  1.00  0.00     0.171 HD
BRANCH  27  30
ATOM     30  C   UNL     1      33.024  26.084 -22.041  1.00  0.00     0.044 A 
ATOM     31  C   UNL     1      34.346  25.749 -22.359  1.00  0.00     0.026 A 
ATOM     32  C   UNL     1      32.784  26.983 -20.998  1.00  0.00     0.045 A 
ATOM     33  C   UNL     1      35.415  26.307 -21.654  1.00  0.00     0.004 A 
ATOM     34  C   UNL     1      33.854  27.545 -20.287  1.00  0.00     0.054 A 
ATOM     35  C   UNL     1      35.170  27.206 -20.618  1.00  0.00     0.019 A 
ATOM     36  C   UNL     1      33.603  28.467 -19.219  1.00  0.00     0.099 C 
ATOM     37  N   UNL     1      33.418  29.215 -18.350  1.00  0.00    -0.192 NA
ENDBRANCH  27  30
ENDBRANCH  14  24
ENDBRANCH   5  11
TORSDOF 5
ENDMDL
MODEL 5
REMARK VINA RESULT:    -5.839      2.532      8.171
REMARK INTER + INTRA:          -8.465
REMARK INTER:                  -8.542
REMARK INTRA:                   0.077
REMARK UNBOUND:                -0.920
REMARK SMILES CC(C)Oc1cccc(-n2c(NNC(=O)Nc3cccc(C#N)c3)nc3ccccc3c2=O)c1
REMARK SMILES IDX 5 1 6 2 7 3 8 4 9 5 34 6 4 7 2 8 1 9 3 10 10 11 11 12 32 13
REMARK SMILES IDX 12 14 25 15 31 16 33 17 26 18 30 19 27 20 29 21 28 22 13 24
REMARK SMILES IDX 14 25 15 26 16 27 17 30 18 31 24 32 19 33 21 34 20 35 22 36
REMARK SMILES IDX 23 37
REMARK H PARENT 12 23 13 28 16 29
ROOT
ATOM      1  C   UNL     1      26.356  19.924 -19.737  1.00  0.00     0.121 A 
ATOM      2  C   UNL     1      25.040  20.045 -20.174  1.00  0.00     0.046 A 
ATOM      3  C   UNL     1      24.754  20.035 -21.540  1.00  0.00     0.006 A 
ATOM      4  C   UNL     1      25.785  19.918 -22.474  1.00  0.00     0.027 A 
ATOM      5  C   UNL     1      27.121  19.818 -22.058  1.00  0.00     0.056 A 
ATOM      6  C   UNL     1      27.385  19.812 -20.680  1.00  0.00     0.073 A 
ENDROOT
BRANCH   1   7
ATOM      7  O   UNL     1      26.780  19.929 -18.438  1.00  0.00    -0.491 OA
BRANCH   7   8
ATOM      8  C   UNL     1      27.054  21.178 -17.795  1.00  0.00     0.167 C 
ATOM      9  C   UNL     1      28.340  21.067 -16.981  1.00  0.00     0.052 C 
ATOM     10  C   UNL     1      25.874  21.465 -16.870  1.00  0.00     0.052 C 
ENDBRANCH   7   8
ENDBRANCH   1   7
BRANCH   5  11
ATOM     11  N   UNL     1      28.189  19.712 -23.019  1.00  0.00    -0.245 N 
ATOM     12  C   UNL     1      29.339  20.513 -22.919  1.00  0.00     0.230 C 
ATOM     13  C   UNL     1      28.022  18.822 -24.090  1.00  0.00     0.267 C 
ATOM     14  N   UNL     1      29.555  21.292 -21.786  1.00  0.00    -0.265 N 
ATOM     15  N   UNL     1      30.266  20.529 -23.845  1.00  0.00    -0.213 NA
ATOM     16  C   UNL     1      29.077  18.820 -25.116  1.00  0.00     0.066 A 
ATOM     17  O   UNL     1      27.055  18.082 -24.274  1.00  0.00    -0.268 OA
ATOM     18  C   UNL     1      30.141  19.697 -24.957  1.00  0.00     0.080 A 
ATOM     19  C   UNL     1      28.998  17.979 -26.236  1.00  0.00     0.016 A 
ATOM     20  C   UNL     1      31.140  19.730 -25.935  1.00  0.00     0.029 A 
ATOM     21  C   UNL     1      30.000  18.019 -27.205  1.00  0.00     0.001 A 
ATOM     22  C   UNL     1      31.072  18.896 -27.054  1.00  0.00     0.002 A 
ATOM     23  H   UNL     1      29.186  20.887 -20.918  1.00  0.00     0.191 HD
BRANCH  14  24
ATOM     24  N   UNL     1      30.909  21.713 -21.616  1.00  0.00    -0.249 N 
ATOM     25  C   UNL     1      31.051  23.057 -21.286  1.00  0.00     0.337 C 
ATOM     26  O   UNL     1      30.103  23.833 -21.337  1.00  0.00    -0.247 OA
ATOM     27  N   UNL     1      32.354  23.351 -20.944  1.00  0.00    -0.307 N 
ATOM     28  H   UNL     1      31.411  21.053 -21.018  1.00  0.00     0.193 HD
ATOM     29  H   UNL     1      33.021  22.616 -21.129  1.00  0.00     0.171 HD
BRANCH  27  30
ATOM     30  C   UNL     1      32.871  24.586 -20.508  1.00  0.00     0.044 A 
ATOM     31  C   UNL     1      32.488  25.728 -21.223  1.00  0.00     0.026 A 
ATOM     32  C   UNL     1      33.740  24.726 -19.423  1.00  0.00     0.045 A 
ATOM     33  C   UNL     1      32.958  26.992 -20.859  1.00  0.00     0.004 A 
ATOM     34  C   UNL     1      34.215  25.993 -19.054  1.00  0.00     0.054 A 
ATOM     35  C   UNL     1      33.821  27.125 -19.774  1.00  0.00     0.019 A 
ATOM     36  C   UNL     1      35.107  26.130 -17.940  1.00  0.00     0.099 C 
ATOM     37  N   UNL     1      35.829  26.261 -17.041  1.00  0.00    -0.192 NA
ENDBRANCH  27  30
ENDBRANCH  14  24
ENDBRANCH   5  11
TORSDOF 5
ENDMDL
MODEL 6
REMARK VINA RESULT:    -5.811      4.838      8.305
REMARK INTER + INTRA:          -8.429
REMARK INTER:                  -7.366
REMARK INTRA:                  -1.064
REMARK UNBOUND:                -0.920
REMARK SMILES CC(C)Oc1cccc(-n2c(NNC(=O)Nc3cccc(C#N)c3)nc3ccccc3c2=O)c1
REMARK SMILES IDX 5 1 6 2 7 3 8 4 9 5 34 6 4 7 2 8 1 9 3 10 10 11 11 12 32 13
REMARK SMILES IDX 12 14 25 15 31 16 33 17 26 18 30 19 27 20 29 21 28 22 13 24
REMARK SMILES IDX 14 25 15 26 16 27 17 30 18 31 24 32 19 33 21 34 20 35 22 36
REMARK SMILES IDX 23 37
REMARK H PARENT 12 23 13 28 16 29
ROOT
ATOM      1  C   UNL     1      31.154  23.757 -21.092  1.00  0.00     0.121 A 
ATOM      2  C   UNL     1      30.140  24.297 -21.879  1.00  0.00     0.046 A 
ATOM      3  C   UNL     1      30.353  25.490 -22.570  1.00  0.00     0.006 A 
ATOM      4  C   UNL     1      31.575  26.156 -22.464  1.00  0.00     0.027 A 
ATOM      5  C   UNL     1      32.604  25.644 -21.659  1.00  0.00     0.056 A 
ATOM      6  C   UNL     1      32.376  24.433 -20.988  1.00  0.00     0.073 A 
ENDROOT
BRANCH   1   7
ATOM      7  O   UNL     1      31.082  22.607 -20.358  1.00  0.00    -0.491 OA
BRANCH   7   8
ATOM      8  C   UNL     1      30.130  21.602 -20.723  1.00  0.00     0.167 C 
ATOM      9  C   UNL     1      29.167  21.359 -19.565  1.00  0.00     0.052 C 
ATOM     10  C   UNL     1      30.924  20.331 -21.017  1.00  0.00     0.052 C 
ENDBRANCH   7   8
ENDBRANCH   1   7
BRANCH   5  11
ATOM     11  N   UNL     1      33.861  26.336 -21.536  1.00  0.00    -0.245 N 
ATOM     12  C   UNL     1      34.993  25.922 -22.258  1.00  0.00     0.230 C 
ATOM     13  C   UNL     1      33.936  27.405 -20.630  1.00  0.00     0.267 C 
ATOM     14  N   UNL     1      34.876  24.951 -23.248  1.00  0.00    -0.265 N 
ATOM     15  N   UNL     1      36.178  26.450 -22.071  1.00  0.00    -0.213 NA
ATOM     16  C   UNL     1      35.260  28.017 -20.442  1.00  0.00     0.066 A 
ATOM     17  O   UNL     1      33.010  27.843 -19.947  1.00  0.00    -0.268 OA
ATOM     18  C   UNL     1      36.328  27.491 -21.156  1.00  0.00     0.080 A 
ATOM     19  C   UNL     1      35.447  29.081 -19.548  1.00  0.00     0.016 A 
ATOM     20  C   UNL     1      37.601  28.041 -20.970  1.00  0.00     0.029 A 
ATOM     21  C   UNL     1      36.719  29.624 -19.370  1.00  0.00     0.001 A 
ATOM     22  C   UNL     1      37.797  29.103 -20.082  1.00  0.00     0.002 A 
ATOM     23  H   UNL     1      33.978  24.959 -23.744  1.00  0.00     0.191 HD
BRANCH  14  24
ATOM     24  N   UNL     1      35.966  24.923 -24.170  1.00  0.00    -0.249 N 
ATOM     25  C   UNL     1      35.682  24.279 -25.371  1.00  0.00     0.337 C 
ATOM     26  O   UNL     1      34.652  23.632 -25.522  1.00  0.00    -0.247 OA
ATOM     27  N   UNL     1      36.699  24.458 -26.284  1.00  0.00    -0.307 N 
ATOM     28  H   UNL     1      36.383  25.853 -24.252  1.00  0.00     0.193 HD
ATOM     29  H   UNL     1      37.539  24.878 -25.913  1.00  0.00     0.171 HD
BRANCH  27  30
ATOM     30  C   UNL     1      36.749  24.002 -27.615  1.00  0.00     0.044 A 
ATOM     31  C   UNL     1      37.531  22.869 -27.873  1.00  0.00     0.026 A 
ATOM     32  C   UNL     1      36.079  24.618 -28.675  1.00  0.00     0.045 A 
ATOM     33  C   UNL     1      37.638  22.353 -29.167  1.00  0.00     0.004 A 
ATOM     34  C   UNL     1      36.183  24.104 -29.975  1.00  0.00     0.054 A 
ATOM     35  C   UNL     1      36.964  22.969 -30.218  1.00  0.00     0.019 A 
ATOM     36  C   UNL     1      35.493  24.740 -31.059  1.00  0.00     0.099 C 
ATOM     37  N   UNL     1      34.942  25.242 -31.948  1.00  0.00    -0.192 NA
ENDBRANCH  27  30
ENDBRANCH  14  24
ENDBRANCH   5  11
TORSDOF 5
ENDMDL
MODEL 7
REMARK VINA RESULT:    -5.739      6.055      9.816
REMARK INTER + INTRA:          -8.337
REMARK INTER:                  -7.307
REMARK INTRA:                  -1.030
REMARK UNBOUND:                -0.920
REMARK SMILES CC(C)Oc1cccc(-n2c(NNC(=O)Nc3cccc(C#N)c3)nc3ccccc3c2=O)c1
REMARK SMILES IDX 5 1 6 2 7 3 8 4 9 5 34 6 4 7 2 8 1 9 3 10 10 11 11 12 32 13
REMARK SMILES IDX 12 14 25 15 31 16 33 17 26 18 30 19 27 20 29 21 28 22 13 24
REMARK SMILES IDX 14 25 15 26 16 27 17 30 18 31 24 32 19 33 21 34 20 35 22 36
REMARK SMILES IDX 23 37
REMARK H PARENT 12 23 13 28 16 29
ROOT
ATOM      1  C   UNL     1      32.632  29.716 -15.614  1.00  0.00     0.121 A 
ATOM      2  C   UNL     1      32.788  28.753 -14.620  1.00  0.00     0.046 A 
ATOM      3  C   UNL     1      33.739  27.744 -14.769  1.00  0.00     0.006 A 
ATOM      4  C   UNL     1      34.529  27.685 -15.918  1.00  0.00     0.027 A 
ATOM      5  C   UNL     1      34.375  28.630 -16.943  1.00  0.00     0.056 A 
ATOM      6  C   UNL     1      33.426  29.648 -16.766  1.00  0.00     0.073 A 
ENDROOT
BRANCH   1   7
ATOM      7  O   UNL     1      31.739  30.750 -15.606  1.00  0.00    -0.491 OA
BRANCH   7   8
ATOM      8  C   UNL     1      30.404  30.518 -15.144  1.00  0.00     0.167 C 
ATOM      9  C   UNL     1      29.648  29.665 -16.158  1.00  0.00     0.052 C 
ATOM     10  C   UNL     1      29.740  31.887 -15.014  1.00  0.00     0.052 C 
ENDBRANCH   7   8
ENDBRANCH   1   7
BRANCH   5  11
ATOM     11  N   UNL     1      35.178  28.564 -18.138  1.00  0.00    -0.245 N 
ATOM     12  C   UNL     1      34.703  27.935 -19.300  1.00  0.00     0.230 C 
ATOM     13  C   UNL     1      36.474  29.100 -18.087  1.00  0.00     0.267 C 
ATOM     14  N   UNL     1      33.375  27.527 -19.382  1.00  0.00    -0.265 N 
ATOM     15  N   UNL     1      35.455  27.748 -20.356  1.00  0.00    -0.213 NA
ATOM     16  C   UNL     1      37.309  28.915 -19.284  1.00  0.00     0.066 A 
ATOM     17  O   UNL     1      36.988  29.665 -17.122  1.00  0.00    -0.268 OA
ATOM     18  C   UNL     1      36.767  28.222 -20.357  1.00  0.00     0.080 A 
ATOM     19  C   UNL     1      38.625  29.399 -19.332  1.00  0.00     0.016 A 
ATOM     20  C   UNL     1      37.555  28.012 -21.493  1.00  0.00     0.029 A 
ATOM     21  C   UNL     1      39.402  29.185 -20.469  1.00  0.00     0.001 A 
ATOM     22  C   UNL     1      38.867  28.490 -21.551  1.00  0.00     0.002 A 
ATOM     23  H   UNL     1      32.717  28.121 -18.866  1.00  0.00     0.191 HD
BRANCH  14  24
ATOM     24  N   UNL     1      32.915  27.298 -20.716  1.00  0.00    -0.249 N 
ATOM     25  C   UNL     1      32.689  25.960 -21.020  1.00  0.00     0.337 C 
ATOM     26  O   UNL     1      33.047  25.062 -20.265  1.00  0.00    -0.247 OA
ATOM     27  N   UNL     1      32.065  25.825 -22.242  1.00  0.00    -0.307 N 
ATOM     28  H   UNL     1      32.152  27.940 -20.940  1.00  0.00     0.193 HD
ATOM     29  H   UNL     1      32.008  26.672 -22.789  1.00  0.00     0.171 HD
BRANCH  27  30
ATOM     30  C   UNL     1      31.633  24.637 -22.861  1.00  0.00     0.044 A 
ATOM     31  C   UNL     1      30.272  24.323 -22.761  1.00  0.00     0.026 A 
ATOM     32  C   UNL     1      32.482  23.763 -23.546  1.00  0.00     0.045 A 
ATOM     33  C   UNL     1      29.761  23.161 -23.343  1.00  0.00     0.004 A 
ATOM     34  C   UNL     1      31.973  22.595 -24.132  1.00  0.00     0.054 A 
ATOM     35  C   UNL     1      30.611  22.297 -24.030  1.00  0.00     0.019 A 
ATOM     36  C   UNL     1      32.848  21.704 -24.835  1.00  0.00     0.099 C 
ATOM     37  N   UNL     1      33.542  20.970 -25.408  1.00  0.00    -0.192 NA
ENDBRANCH  27  30
ENDBRANCH  14  24
ENDBRANCH   5  11
TORSDOF 5
ENDMDL
MODEL 8
REMARK VINA RESULT:    -5.545      3.180      7.227
REMARK INTER + INTRA:          -8.085
REMARK INTER:                  -7.005
REMARK INTRA:                  -1.080
REMARK UNBOUND:                -0.920
REMARK SMILES CC(C)Oc1cccc(-n2c(NNC(=O)Nc3cccc(C#N)c3)nc3ccccc3c2=O)c1
REMARK SMILES IDX 5 1 6 2 7 3 8 4 9 5 34 6 4 7 2 8 1 9 3 10 10 11 11 12 32 13
REMARK SMILES IDX 12 14 25 15 31 16 33 17 26 18 30 19 27 20 29 21 28 22 13 24
REMARK SMILES IDX 14 25 15 26 16 27 17 30 18 31 24 32 19 33 21 34 20 35 22 36
REMARK SMILES IDX 23 37
REMARK H PARENT 12 23 13 28 16 29
ROOT
ATOM      1  C   UNL     1      34.912  26.378 -20.288  1.00  0.00     0.121 A 
ATOM      2  C   UNL     1      33.848  27.273 -20.215  1.00  0.00     0.046 A 
ATOM      3  C   UNL     1      32.631  26.962 -20.823  1.00  0.00     0.006 A 
ATOM      4  C   UNL     1      32.478  25.761 -21.518  1.00  0.00     0.027 A 
ATOM      5  C   UNL     1      33.543  24.854 -21.624  1.00  0.00     0.056 A 
ATOM      6  C   UNL     1      34.752  25.177 -20.990  1.00  0.00     0.073 A 
ENDROOT
BRANCH   1   7
ATOM      7  O   UNL     1      36.157  26.555 -19.752  1.00  0.00    -0.491 OA
BRANCH   7   8
ATOM      8  C   UNL     1      37.291  26.628 -20.622  1.00  0.00     0.167 C 
ATOM      9  C   UNL     1      38.575  26.533 -19.804  1.00  0.00     0.052 C 
ATOM     10  C   UNL     1      37.218  27.980 -21.326  1.00  0.00     0.052 C 
ENDBRANCH   7   8
ENDBRANCH   1   7
BRANCH   5  11
ATOM     11  N   UNL     1      33.393  23.620 -22.353  1.00  0.00    -0.245 N 
ATOM     12  C   UNL     1      32.860  22.474 -21.741  1.00  0.00     0.230 C 
ATOM     13  C   UNL     1      33.846  23.583 -23.681  1.00  0.00     0.267 C 
ATOM     14  N   UNL     1      32.293  22.556 -20.472  1.00  0.00    -0.265 N 
ATOM     15  N   UNL     1      32.829  21.308 -22.338  1.00  0.00    -0.213 NA
ATOM     16  C   UNL     1      33.785  22.280 -24.361  1.00  0.00     0.066 A 
ATOM     17  O   UNL     1      34.331  24.525 -24.308  1.00  0.00    -0.268 OA
ATOM     18  C   UNL     1      33.301  21.194 -23.646  1.00  0.00     0.080 A 
ATOM     19  C   UNL     1      34.227  22.131 -25.684  1.00  0.00     0.016 A 
ATOM     20  C   UNL     1      33.261  19.941 -24.266  1.00  0.00     0.029 A 
ATOM     21  C   UNL     1      34.182  20.878 -26.293  1.00  0.00     0.001 A 
ATOM     22  C   UNL     1      33.699  19.782 -25.583  1.00  0.00     0.002 A 
ATOM     23  H   UNL     1      31.837  23.453 -20.270  1.00  0.00     0.191 HD
BRANCH  14  24
ATOM     24  N   UNL     1      31.435  21.463 -20.144  1.00  0.00    -0.249 N 
ATOM     25  C   UNL     1      30.095  21.675 -20.456  1.00  0.00     0.337 C 
ATOM     26  O   UNL     1      29.684  22.780 -20.794  1.00  0.00    -0.247 OA
ATOM     27  N   UNL     1      29.358  20.521 -20.300  1.00  0.00    -0.307 N 
ATOM     28  H   UNL     1      31.835  20.586 -20.484  1.00  0.00     0.193 HD
ATOM     29  H   UNL     1      29.845  19.760 -19.849  1.00  0.00     0.171 HD
BRANCH  27  30
ATOM     30  C   UNL     1      27.988  20.334 -20.566  1.00  0.00     0.044 A 
ATOM     31  C   UNL     1      27.088  20.668 -19.546  1.00  0.00     0.026 A 
ATOM     32  C   UNL     1      27.491  19.827 -21.769  1.00  0.00     0.045 A 
ATOM     33  C   UNL     1      25.712  20.510 -19.726  1.00  0.00     0.004 A 
ATOM     34  C   UNL     1      26.110  19.666 -21.954  1.00  0.00     0.054 A 
ATOM     35  C   UNL     1      25.223  20.009 -20.930  1.00  0.00     0.019 A 
ATOM     36  C   UNL     1      25.606  19.147 -23.191  1.00  0.00     0.099 C 
ATOM     37  N   UNL     1      25.179  18.727 -24.186  1.00  0.00    -0.192 NA
ENDBRANCH  27  30
ENDBRANCH  14  24
ENDBRANCH   5  11
TORSDOF 5
ENDMDL
MODEL 9
REMARK VINA RESULT:    -5.450      5.365      9.417
REMARK INTER + INTRA:          -7.963
REMARK INTER:                  -6.825
REMARK INTRA:                  -1.138
REMARK UNBOUND:                -0.920
REMARK SMILES CC(C)Oc1cccc(-n2c(NNC(=O)Nc3cccc(C#N)c3)nc3ccccc3c2=O)c1
REMARK SMILES IDX 5 1 6 2 7 3 8 4 9 5 34 6 4 7 2 8 1 9 3 10 10 11 11 12 32 13
REMARK SMILES IDX 12 14 25 15 31 16 33 17 26 18 30 19 27 20 29 21 28 22 13 24
REMARK SMILES IDX 14 25 15 26 16 27 17 30 18 31 24 32 19 33 21 34 20 35 22 36
REMARK SMILES IDX 23 37
REMARK H PARENT 12 23 13 28 16 29
ROOT
ATOM      1  C   UNL     1      38.429  26.318 -21.239  1.00  0.00     0.121 A 
ATOM      2  C   UNL     1      38.851  27.216 -22.216  1.00  0.00     0.046 A 
ATOM      3  C   UNL     1      38.266  28.480 -22.302  1.00  0.00     0.006 A 
ATOM      4  C   UNL     1      37.248  28.846 -21.420  1.00  0.00     0.027 A 
ATOM      5  C   UNL     1      36.790  27.950 -20.442  1.00  0.00     0.056 A 
ATOM      6  C   UNL     1      37.404  26.691 -20.361  1.00  0.00     0.073 A 
ENDROOT
BRANCH   1   7
ATOM      7  O   UNL     1      38.903  25.051 -21.046  1.00  0.00    -0.491 OA
BRANCH   7   8
ATOM      8  C   UNL     1      37.976  23.965 -20.941  1.00  0.00     0.167 C 
ATOM      9  C   UNL     1      38.658  22.767 -20.287  1.00  0.00     0.052 C 
ATOM     10  C   UNL     1      37.550  23.612 -22.363  1.00  0.00     0.052 C 
ENDBRANCH   7   8
ENDBRANCH   1   7
BRANCH   5  11
ATOM     11  N   UNL     1      35.729  28.319 -19.540  1.00  0.00    -0.245 N 
ATOM     12  C   UNL     1      34.380  28.143 -19.893  1.00  0.00     0.230 C 
ATOM     13  C   UNL     1      36.083  28.910 -18.318  1.00  0.00     0.267 C 
ATOM     14  N   UNL     1      34.043  27.437 -21.044  1.00  0.00    -0.265 N 
ATOM     15  N   UNL     1      33.396  28.585 -19.149  1.00  0.00    -0.213 NA
ATOM     16  C   UNL     1      34.976  29.380 -17.470  1.00  0.00     0.066 A 
ATOM     17  O   UNL     1      37.228  29.114 -17.915  1.00  0.00    -0.268 OA
ATOM     18  C   UNL     1      33.680  29.218 -17.939  1.00  0.00     0.080 A 
ATOM     19  C   UNL     1      35.222  30.000 -16.235  1.00  0.00     0.016 A 
ATOM     20  C   UNL     1      32.617  29.683 -17.160  1.00  0.00     0.029 A 
ATOM     21  C   UNL     1      34.154  30.459 -15.465  1.00  0.00     0.001 A 
ATOM     22  C   UNL     1      32.850  30.301 -15.928  1.00  0.00     0.002 A 
ATOM     23  H   UNL     1      34.695  26.681 -21.282  1.00  0.00     0.191 HD
BRANCH  14  24
ATOM     24  N   UNL     1      32.693  26.973 -21.070  1.00  0.00    -0.249 N 
ATOM     25  C   UNL     1      32.516  25.770 -21.747  1.00  0.00     0.337 C 
ATOM     26  O   UNL     1      33.414  25.276 -22.420  1.00  0.00    -0.247 OA
ATOM     27  N   UNL     1      31.240  25.281 -21.567  1.00  0.00    -0.307 N 
ATOM     28  H   UNL     1      32.287  27.019 -20.133  1.00  0.00     0.193 HD
ATOM     29  H   UNL     1      30.596  25.918 -21.121  1.00  0.00     0.171 HD
BRANCH  27  30
ATOM     30  C   UNL     1      30.707  24.072 -22.053  1.00  0.00     0.044 A 
ATOM     31  C   UNL     1      30.560  23.950 -23.441  1.00  0.00     0.026 A 
ATOM     32  C   UNL     1      30.311  23.011 -21.234  1.00  0.00     0.045 A 
ATOM     33  C   UNL     1      30.036  22.785 -24.005  1.00  0.00     0.004 A 
ATOM     34  C   UNL     1      29.784  21.839 -21.796  1.00  0.00     0.054 A 
ATOM     35  C   UNL     1      29.648  21.729 -23.184  1.00  0.00     0.019 A 
ATOM     36  C   UNL     1      29.381  20.754 -20.952  1.00  0.00     0.099 C 
ATOM     37  N   UNL     1      29.049  19.865 -20.283  1.00  0.00    -0.192 NA
ENDBRANCH  27  30
ENDBRANCH  14  24
ENDBRANCH   5  11
TORSDOF 5
ENDMDL
