MODEL 1
REMARK VINA RESULT:    -6.277      0.000      0.000
REMARK INTER + INTRA:          -7.797
REMARK INTER:                  -7.378
REMARK INTRA:                  -0.419
REMARK UNBOUND:                -0.419
REMARK SMILES Cc1cccc(NC(=O)NNc2nc3ccccc3c(=O)n2-c2ccccc2)c1
REMARK SMILES IDX 7 1 8 2 9 3 10 4 6 7 2 8 3 9 29 10 4 11 5 12 1 13 11 14
REMARK SMILES IDX 12 15 13 16 22 17 14 18 20 19 15 20 19 21 21 22 16 23 18 24
REMARK SMILES IDX 17 25 23 27 24 28 28 29 25 30 27 31 26 32
REMARK H PARENT 7 5 10 6 11 26
ROOT
ATOM      1  N   UNL     1      31.335  23.574 -21.397  1.00  0.00    -0.307 N 
ATOM      2  C   UNL     1      30.260  22.726 -21.568  1.00  0.00     0.337 C 
ATOM      3  O   UNL     1      29.732  22.405 -22.629  1.00  0.00    -0.247 OA
ATOM      4  N   UNL     1      29.775  22.282 -20.345  1.00  0.00    -0.249 N 
ATOM      5  H   UNL     1      31.517  23.854 -20.445  1.00  0.00     0.171 HD
ATOM      6  H   UNL     1      30.421  22.150 -19.570  1.00  0.00     0.193 HD
ENDROOT
BRANCH   1   7
ATOM      7  C   UNL     1      32.118  24.187 -22.393  1.00  0.00     0.043 A 
ATOM      8  C   UNL     1      32.202  25.827 -24.203  1.00  0.00    -0.049 A 
ATOM      9  C   UNL     1      33.545  25.506 -24.419  1.00  0.00     0.003 A 
ATOM     10  C   UNL     1      31.495  25.155 -23.194  1.00  0.00     0.029 A 
ATOM     11  C   UNL     1      34.174  24.549 -23.626  1.00  0.00     0.002 A 
ATOM     12  C   UNL     1      33.464  23.895 -22.614  1.00  0.00     0.026 A 
ATOM     13  C   UNL     1      31.511  26.833 -25.074  1.00  0.00     0.044 C 
ENDBRANCH   1   7
BRANCH   4  14
ATOM     14  N   UNL     1      28.810  21.254 -20.405  1.00  0.00    -0.265 N 
ATOM     15  C   UNL     1      28.179  20.947 -19.210  1.00  0.00     0.230 C 
ATOM     16  N   UNL     1      28.747  21.359 -18.105  1.00  0.00    -0.213 NA
ATOM     17  N   UNL     1      26.954  20.256 -19.212  1.00  0.00    -0.245 N 
ATOM     18  C   UNL     1      28.111  21.152 -16.882  1.00  0.00     0.080 A 
ATOM     19  C   UNL     1      26.228  20.077 -18.025  1.00  0.00     0.267 C 
ATOM     20  C   UNL     1      28.743  21.587 -15.714  1.00  0.00     0.029 A 
ATOM     21  C   UNL     1      26.862  20.554 -16.785  1.00  0.00     0.066 A 
ATOM     22  O   UNL     1      25.132  19.525 -17.920  1.00  0.00    -0.268 OA
ATOM     23  C   UNL     1      28.131  21.425 -14.468  1.00  0.00     0.002 A 
ATOM     24  C   UNL     1      26.239  20.387 -15.540  1.00  0.00     0.016 A 
ATOM     25  C   UNL     1      26.877  20.825 -14.382  1.00  0.00     0.001 A 
ATOM     26  H   UNL     1      28.252  21.285 -21.260  1.00  0.00     0.191 HD
BRANCH  17  27
ATOM     27  C   UNL     1      26.430  19.672 -20.420  1.00  0.00     0.052 A 
ATOM     28  C   UNL     1      25.307  20.225 -21.060  1.00  0.00     0.027 A 
ATOM     29  C   UNL     1      27.036  18.550 -21.003  1.00  0.00     0.027 A 
ATOM     30  C   UNL     1      24.789  19.653 -22.225  1.00  0.00     0.002 A 
ATOM     31  C   UNL     1      26.518  17.979 -22.170  1.00  0.00     0.002 A 
ATOM     32  C   UNL     1      25.394  18.528 -22.778  1.00  0.00     0.000 A 
ENDBRANCH  17  27
ENDBRANCH   4  14
TORSDOF 3
ENDMDL
MODEL 2
REMARK VINA RESULT:    -6.170      4.036      9.973
REMARK INTER + INTRA:          -7.671
REMARK INTER:                  -7.000
REMARK INTRA:                  -0.671
REMARK UNBOUND:                -0.419
REMARK SMILES Cc1cccc(NC(=O)NNc2nc3ccccc3c(=O)n2-c2ccccc2)c1
REMARK SMILES IDX 7 1 8 2 9 3 10 4 6 7 2 8 3 9 29 10 4 11 5 12 1 13 11 14
REMARK SMILES IDX 12 15 13 16 22 17 14 18 20 19 15 20 19 21 21 22 16 23 18 24
REMARK SMILES IDX 17 25 23 27 24 28 28 29 25 30 27 31 26 32
REMARK H PARENT 7 5 10 6 11 26
ROOT
ATOM      1  N   UNL     1      29.242  19.482 -23.620  1.00  0.00    -0.307 N 
ATOM      2  C   UNL     1      29.874  20.708 -23.585  1.00  0.00     0.337 C 
ATOM      3  O   UNL     1      29.352  21.814 -23.677  1.00  0.00    -0.247 OA
ATOM      4  N   UNL     1      31.250  20.555 -23.474  1.00  0.00    -0.249 N 
ATOM      5  H   UNL     1      29.851  18.683 -23.703  1.00  0.00     0.171 HD
ATOM      6  H   UNL     1      31.625  19.763 -22.958  1.00  0.00     0.193 HD
ENDROOT
BRANCH   1   7
ATOM      7  C   UNL     1      27.858  19.227 -23.680  1.00  0.00     0.043 A 
ATOM      8  C   UNL     1      25.689  19.462 -22.579  1.00  0.00    -0.049 A 
ATOM      9  C   UNL     1      25.084  18.800 -23.650  1.00  0.00     0.003 A 
ATOM     10  C   UNL     1      27.079  19.661 -22.598  1.00  0.00     0.029 A 
ATOM     11  C   UNL     1      25.850  18.370 -24.732  1.00  0.00     0.002 A 
ATOM     12  C   UNL     1      27.231  18.586 -24.748  1.00  0.00     0.026 A 
ATOM     13  C   UNL     1      24.875  19.899 -21.398  1.00  0.00     0.044 C 
ENDBRANCH   1   7
BRANCH   4  14
ATOM     14  N   UNL     1      31.980  21.737 -23.226  1.00  0.00    -0.265 N 
ATOM     15  C   UNL     1      33.043  21.982 -24.081  1.00  0.00     0.230 C 
ATOM     16  N   UNL     1      33.490  20.977 -24.790  1.00  0.00    -0.213 NA
ATOM     17  N   UNL     1      33.576  23.279 -24.196  1.00  0.00    -0.245 N 
ATOM     18  C   UNL     1      34.500  21.189 -25.727  1.00  0.00     0.080 A 
ATOM     19  C   UNL     1      34.543  23.575 -25.168  1.00  0.00     0.267 C 
ATOM     20  C   UNL     1      34.972  20.099 -26.463  1.00  0.00     0.029 A 
ATOM     21  C   UNL     1      35.034  22.446 -25.974  1.00  0.00     0.066 A 
ATOM     22  O   UNL     1      35.046  24.680 -25.380  1.00  0.00    -0.268 OA
ATOM     23  C   UNL     1      35.965  20.267 -27.433  1.00  0.00     0.002 A 
ATOM     24  C   UNL     1      36.030  22.627 -26.944  1.00  0.00     0.016 A 
ATOM     25  C   UNL     1      36.494  21.533 -27.674  1.00  0.00     0.001 A 
ATOM     26  H   UNL     1      31.384  22.519 -22.948  1.00  0.00     0.191 HD
BRANCH  17  27
ATOM     27  C   UNL     1      33.180  24.330 -23.293  1.00  0.00     0.052 A 
ATOM     28  C   UNL     1      33.855  24.528 -22.076  1.00  0.00     0.027 A 
ATOM     29  C   UNL     1      32.124  25.196 -23.611  1.00  0.00     0.027 A 
ATOM     30  C   UNL     1      33.465  25.539 -21.193  1.00  0.00     0.002 A 
ATOM     31  C   UNL     1      31.735  26.209 -22.728  1.00  0.00     0.002 A 
ATOM     32  C   UNL     1      32.403  26.377 -21.519  1.00  0.00     0.000 A 
ENDBRANCH  17  27
ENDBRANCH   4  14
TORSDOF 3
ENDMDL
MODEL 3
REMARK VINA RESULT:    -6.148      8.442     11.356
REMARK INTER + INTRA:          -7.645
REMARK INTER:                  -6.883
REMARK INTRA:                  -0.762
REMARK UNBOUND:                -0.419
REMARK SMILES Cc1cccc(NC(=O)NNc2nc3ccccc3c(=O)n2-c2ccccc2)c1
REMARK SMILES IDX 7 1 8 2 9 3 10 4 6 7 2 8 3 9 29 10 4 11 5 12 1 13 11 14
REMARK SMILES IDX 12 15 13 16 22 17 14 18 20 19 15 20 19 21 21 22 16 23 18 24
REMARK SMILES IDX 17 25 23 27 24 28 28 29 25 30 27 31 26 32
REMARK H PARENT 7 5 10 6 11 26
ROOT
ATOM      1  N   UNL     1      33.816  27.076 -19.557  1.00  0.00    -0.307 N 
ATOM      2  C   UNL     1      34.077  28.400 -19.270  1.00  0.00     0.337 C 
ATOM      3  O   UNL     1      34.191  29.323 -20.070  1.00  0.00    -0.247 OA
ATOM      4  N   UNL     1      34.254  28.589 -17.905  1.00  0.00    -0.249 N 
ATOM      5  H   UNL     1      33.930  26.436 -18.785  1.00  0.00     0.171 HD
ATOM      6  H   UNL     1      33.737  28.009 -17.249  1.00  0.00     0.193 HD
ENDROOT
BRANCH   1   7
ATOM      7  C   UNL     1      33.537  26.504 -20.813  1.00  0.00     0.043 A 
ATOM      8  C   UNL     1      31.823  25.654 -22.333  1.00  0.00    -0.049 A 
ATOM      9  C   UNL     1      32.813  25.369 -23.276  1.00  0.00     0.003 A 
ATOM     10  C   UNL     1      32.195  26.213 -21.100  1.00  0.00     0.029 A 
ATOM     11  C   UNL     1      34.148  25.660 -23.001  1.00  0.00     0.002 A 
ATOM     12  C   UNL     1      34.507  26.230 -21.776  1.00  0.00     0.026 A 
ATOM     13  C   UNL     1      30.389  25.313 -22.610  1.00  0.00     0.044 C 
ENDBRANCH   1   7
BRANCH   4  14
ATOM     14  N   UNL     1      34.324  29.932 -17.476  1.00  0.00    -0.265 N 
ATOM     15  C   UNL     1      33.276  30.367 -16.681  1.00  0.00     0.230 C 
ATOM     16  N   UNL     1      32.179  29.653 -16.685  1.00  0.00    -0.213 NA
ATOM     17  N   UNL     1      33.423  31.513 -15.879  1.00  0.00    -0.245 N 
ATOM     18  C   UNL     1      31.127  29.999 -15.839  1.00  0.00     0.080 A 
ATOM     19  C   UNL     1      32.432  31.876 -14.954  1.00  0.00     0.267 C 
ATOM     20  C   UNL     1      29.960  29.230 -15.869  1.00  0.00     0.029 A 
ATOM     21  C   UNL     1      31.206  31.062 -14.950  1.00  0.00     0.066 A 
ATOM     22  O   UNL     1      32.476  32.831 -14.178  1.00  0.00    -0.268 OA
ATOM     23  C   UNL     1      28.889  29.523 -15.021  1.00  0.00     0.002 A 
ATOM     24  C   UNL     1      30.137  31.364 -14.094  1.00  0.00     0.016 A 
ATOM     25  C   UNL     1      28.978  30.591 -14.131  1.00  0.00     0.001 A 
ATOM     26  H   UNL     1      35.274  30.221 -17.236  1.00  0.00     0.191 HD
BRANCH  17  27
ATOM     27  C   UNL     1      34.572  32.373 -16.011  1.00  0.00     0.052 A 
ATOM     28  C   UNL     1      34.588  33.414 -16.955  1.00  0.00     0.027 A 
ATOM     29  C   UNL     1      35.696  32.208 -15.190  1.00  0.00     0.027 A 
ATOM     30  C   UNL     1      35.707  34.241 -17.093  1.00  0.00     0.002 A 
ATOM     31  C   UNL     1      36.814  33.037 -15.328  1.00  0.00     0.002 A 
ATOM     32  C   UNL     1      36.820  34.050 -16.281  1.00  0.00     0.000 A 
ENDBRANCH  17  27
ENDBRANCH   4  14
TORSDOF 3
ENDMDL
MODEL 4
REMARK VINA RESULT:    -6.132      7.346     11.852
REMARK INTER + INTRA:          -7.626
REMARK INTER:                  -6.892
REMARK INTRA:                  -0.734
REMARK UNBOUND:                -0.419
REMARK SMILES Cc1cccc(NC(=O)NNc2nc3ccccc3c(=O)n2-c2ccccc2)c1
REMARK SMILES IDX 7 1 8 2 9 3 10 4 6 7 2 8 3 9 29 10 4 11 5 12 1 13 11 14
REMARK SMILES IDX 12 15 13 16 22 17 14 18 20 19 15 20 19 21 21 22 16 23 18 24
REMARK SMILES IDX 17 25 23 27 24 28 28 29 25 30 27 31 26 32
REMARK H PARENT 7 5 10 6 11 26
ROOT
ATOM      1  N   UNL     1      30.840  29.905 -16.902  1.00  0.00    -0.307 N 
ATOM      2  C   UNL     1      32.175  29.556 -16.916  1.00  0.00     0.337 C 
ATOM      3  O   UNL     1      32.895  29.342 -15.945  1.00  0.00    -0.247 OA
ATOM      4  N   UNL     1      32.666  29.515 -18.215  1.00  0.00    -0.249 N 
ATOM      5  H   UNL     1      30.463  30.208 -17.787  1.00  0.00     0.171 HD
ATOM      6  H   UNL     1      32.049  29.234 -18.973  1.00  0.00     0.193 HD
ENDROOT
BRANCH   1   7
ATOM      7  C   UNL     1      29.987  30.006 -15.786  1.00  0.00     0.043 A 
ATOM      8  C   UNL     1      28.841  31.492 -14.221  1.00  0.00    -0.049 A 
ATOM      9  C   UNL     1      28.296  30.379 -13.577  1.00  0.00     0.003 A 
ATOM     10  C   UNL     1      29.693  31.295 -15.319  1.00  0.00     0.029 A 
ATOM     11  C   UNL     1      28.578  29.094 -14.037  1.00  0.00     0.002 A 
ATOM     12  C   UNL     1      29.417  28.909 -15.141  1.00  0.00     0.026 A 
ATOM     13  C   UNL     1      28.567  32.875 -13.710  1.00  0.00     0.044 C 
ENDBRANCH   1   7
BRANCH   4  14
ATOM     14  N   UNL     1      33.960  28.973 -18.364  1.00  0.00    -0.265 N 
ATOM     15  C   UNL     1      34.134  28.109 -19.433  1.00  0.00     0.230 C 
ATOM     16  N   UNL     1      33.058  27.603 -19.981  1.00  0.00    -0.213 NA
ATOM     17  N   UNL     1      35.425  27.833 -19.919  1.00  0.00    -0.245 N 
ATOM     18  C   UNL     1      33.172  26.797 -21.112  1.00  0.00     0.080 A 
ATOM     19  C   UNL     1      35.606  27.088 -21.094  1.00  0.00     0.267 C 
ATOM     20  C   UNL     1      32.012  26.257 -21.672  1.00  0.00     0.029 A 
ATOM     21  C   UNL     1      34.394  26.533 -21.717  1.00  0.00     0.066 A 
ATOM     22  O   UNL     1      36.685  26.823 -21.627  1.00  0.00    -0.268 OA
ATOM     23  C   UNL     1      32.074  25.464 -22.821  1.00  0.00     0.002 A 
ATOM     24  C   UNL     1      34.468  25.739 -22.870  1.00  0.00     0.016 A 
ATOM     25  C   UNL     1      33.304  25.206 -23.421  1.00  0.00     0.001 A 
ATOM     26  H   UNL     1      34.698  29.649 -18.155  1.00  0.00     0.191 HD
BRANCH  17  27
ATOM     27  C   UNL     1      36.599  28.267 -19.206  1.00  0.00     0.052 A 
ATOM     28  C   UNL     1      37.189  27.451 -18.226  1.00  0.00     0.027 A 
ATOM     29  C   UNL     1      37.195  29.506 -19.481  1.00  0.00     0.027 A 
ATOM     30  C   UNL     1      38.321  27.876 -17.523  1.00  0.00     0.002 A 
ATOM     31  C   UNL     1      38.329  29.929 -18.779  1.00  0.00     0.002 A 
ATOM     32  C   UNL     1      38.888  29.116 -17.798  1.00  0.00     0.000 A 
ENDBRANCH  17  27
ENDBRANCH   4  14
TORSDOF 3
ENDMDL
MODEL 5
REMARK VINA RESULT:    -6.041      1.247      2.011
REMARK INTER + INTRA:          -7.519
REMARK INTER:                  -6.994
REMARK INTRA:                  -0.525
REMARK UNBOUND:                -0.419
REMARK SMILES Cc1cccc(NC(=O)NNc2nc3ccccc3c(=O)n2-c2ccccc2)c1
REMARK SMILES IDX 7 1 8 2 9 3 10 4 6 7 2 8 3 9 29 10 4 11 5 12 1 13 11 14
REMARK SMILES IDX 12 15 13 16 22 17 14 18 20 19 15 20 19 21 21 22 16 23 18 24
REMARK SMILES IDX 17 25 23 27 24 28 28 29 25 30 27 31 26 32
REMARK H PARENT 7 5 10 6 11 26
ROOT
ATOM      1  N   UNL     1      31.559  23.065 -20.912  1.00  0.00    -0.307 N 
ATOM      2  C   UNL     1      30.313  22.550 -20.615  1.00  0.00     0.337 C 
ATOM      3  O   UNL     1      29.233  22.920 -21.064  1.00  0.00    -0.247 OA
ATOM      4  N   UNL     1      30.404  21.542 -19.664  1.00  0.00    -0.249 N 
ATOM      5  H   UNL     1      32.310  22.750 -20.316  1.00  0.00     0.171 HD
ATOM      6  H   UNL     1      31.228  20.948 -19.644  1.00  0.00     0.193 HD
ENDROOT
BRANCH   1   7
ATOM      7  C   UNL     1      31.879  24.060 -21.854  1.00  0.00     0.043 A 
ATOM      8  C   UNL     1      33.338  24.736 -23.695  1.00  0.00    -0.049 A 
ATOM      9  C   UNL     1      32.640  25.942 -23.794  1.00  0.00     0.003 A 
ATOM     10  C   UNL     1      32.957  23.806 -22.715  1.00  0.00     0.029 A 
ATOM     11  C   UNL     1      31.565  26.201 -22.946  1.00  0.00     0.002 A 
ATOM     12  C   UNL     1      31.183  25.262 -21.983  1.00  0.00     0.026 A 
ATOM     13  C   UNL     1      34.516  24.464 -24.582  1.00  0.00     0.044 C 
ENDBRANCH   1   7
BRANCH   4  14
ATOM     14  N   UNL     1      29.221  20.808 -19.434  1.00  0.00    -0.265 N 
ATOM     15  C   UNL     1      28.719  20.859 -18.144  1.00  0.00     0.230 C 
ATOM     16  N   UNL     1      29.527  21.265 -17.198  1.00  0.00    -0.213 NA
ATOM     17  N   UNL     1      27.376  20.522 -17.891  1.00  0.00    -0.245 N 
ATOM     18  C   UNL     1      29.048  21.416 -15.898  1.00  0.00     0.080 A 
ATOM     19  C   UNL     1      26.813  20.718 -16.622  1.00  0.00     0.267 C 
ATOM     20  C   UNL     1      29.932  21.837 -14.901  1.00  0.00     0.029 A 
ATOM     21  C   UNL     1      27.720  21.189 -15.563  1.00  0.00     0.066 A 
ATOM     22  O   UNL     1      25.643  20.496 -16.304  1.00  0.00    -0.268 OA
ATOM     23  C   UNL     1      29.491  22.028 -13.588  1.00  0.00     0.002 A 
ATOM     24  C   UNL     1      27.267  21.378 -14.250  1.00  0.00     0.016 A 
ATOM     25  C   UNL     1      28.156  21.799 -13.263  1.00  0.00     0.001 A 
ATOM     26  H   UNL     1      28.567  20.858 -20.218  1.00  0.00     0.191 HD
BRANCH  17  27
ATOM     27  C   UNL     1      26.553  19.925 -18.912  1.00  0.00     0.052 A 
ATOM     28  C   UNL     1      26.666  18.559 -19.222  1.00  0.00     0.027 A 
ATOM     29  C   UNL     1      25.604  20.685 -19.611  1.00  0.00     0.027 A 
ATOM     30  C   UNL     1      25.877  17.981 -20.221  1.00  0.00     0.002 A 
ATOM     31  C   UNL     1      24.814  20.105 -20.609  1.00  0.00     0.002 A 
ATOM     32  C   UNL     1      24.954  18.756 -20.916  1.00  0.00     0.000 A 
ENDBRANCH  17  27
ENDBRANCH   4  14
TORSDOF 3
ENDMDL
MODEL 6
REMARK VINA RESULT:    -6.016      4.214      6.378
REMARK INTER + INTRA:          -7.490
REMARK INTER:                  -6.811
REMARK INTRA:                  -0.679
REMARK UNBOUND:                -0.419
REMARK SMILES Cc1cccc(NC(=O)NNc2nc3ccccc3c(=O)n2-c2ccccc2)c1
REMARK SMILES IDX 7 1 8 2 9 3 10 4 6 7 2 8 3 9 29 10 4 11 5 12 1 13 11 14
REMARK SMILES IDX 12 15 13 16 22 17 14 18 20 19 15 20 19 21 21 22 16 23 18 24
REMARK SMILES IDX 17 25 23 27 24 28 28 29 25 30 27 31 26 32
REMARK H PARENT 7 5 10 6 11 26
ROOT
ATOM      1  N   UNL     1      31.461  23.955 -21.275  1.00  0.00    -0.307 N 
ATOM      2  C   UNL     1      31.696  23.027 -22.268  1.00  0.00     0.337 C 
ATOM      3  O   UNL     1      32.697  22.932 -22.971  1.00  0.00    -0.247 OA
ATOM      4  N   UNL     1      30.600  22.190 -22.438  1.00  0.00    -0.249 N 
ATOM      5  H   UNL     1      30.514  23.986 -20.926  1.00  0.00     0.171 HD
ATOM      6  H   UNL     1      30.023  21.954 -21.634  1.00  0.00     0.193 HD
ENDROOT
BRANCH   1   7
ATOM      7  C   UNL     1      32.343  24.937 -20.785  1.00  0.00     0.043 A 
ATOM      8  C   UNL     1      34.150  25.463 -19.226  1.00  0.00    -0.049 A 
ATOM      9  C   UNL     1      34.171  26.774 -19.706  1.00  0.00     0.003 A 
ATOM     10  C   UNL     1      33.226  24.554 -19.765  1.00  0.00     0.029 A 
ATOM     11  C   UNL     1      33.301  27.162 -20.723  1.00  0.00     0.002 A 
ATOM     12  C   UNL     1      32.394  26.246 -21.263  1.00  0.00     0.026 A 
ATOM     13  C   UNL     1      35.061  25.048 -18.109  1.00  0.00     0.044 C 
ENDBRANCH   1   7
BRANCH   4  14
ATOM     14  N   UNL     1      30.803  21.078 -23.283  1.00  0.00    -0.265 N 
ATOM     15  C   UNL     1      29.683  20.305 -23.543  1.00  0.00     0.230 C 
ATOM     16  N   UNL     1      28.656  20.443 -22.744  1.00  0.00    -0.213 NA
ATOM     17  N   UNL     1      29.659  19.443 -24.654  1.00  0.00    -0.245 N 
ATOM     18  C   UNL     1      27.475  19.753 -23.011  1.00  0.00     0.080 A 
ATOM     19  C   UNL     1      28.482  18.774 -25.020  1.00  0.00     0.267 C 
ATOM     20  C   UNL     1      26.395  19.905 -22.137  1.00  0.00     0.029 A 
ATOM     21  C   UNL     1      27.323  18.942 -24.128  1.00  0.00     0.066 A 
ATOM     22  O   UNL     1      28.340  18.031 -25.992  1.00  0.00    -0.268 OA
ATOM     23  C   UNL     1      25.182  19.254 -22.379  1.00  0.00     0.002 A 
ATOM     24  C   UNL     1      26.111  18.285 -24.381  1.00  0.00     0.016 A 
ATOM     25  C   UNL     1      25.040  18.444 -23.503  1.00  0.00     0.001 A 
ATOM     26  H   UNL     1      31.451  21.276 -24.048  1.00  0.00     0.191 HD
BRANCH  17  27
ATOM     27  C   UNL     1      30.850  19.184 -25.423  1.00  0.00     0.052 A 
ATOM     28  C   UNL     1      31.785  18.222 -25.003  1.00  0.00     0.027 A 
ATOM     29  C   UNL     1      31.102  19.871 -26.619  1.00  0.00     0.027 A 
ATOM     30  C   UNL     1      32.947  17.979 -25.740  1.00  0.00     0.002 A 
ATOM     31  C   UNL     1      32.264  19.626 -27.358  1.00  0.00     0.002 A 
ATOM     32  C   UNL     1      33.188  18.684 -26.916  1.00  0.00     0.000 A 
ENDBRANCH  17  27
ENDBRANCH   4  14
TORSDOF 3
ENDMDL
MODEL 7
REMARK VINA RESULT:    -5.978      5.928     10.707
REMARK INTER + INTRA:          -7.446
REMARK INTER:                  -6.743
REMARK INTRA:                  -0.703
REMARK UNBOUND:                -0.419
REMARK SMILES Cc1cccc(NC(=O)NNc2nc3ccccc3c(=O)n2-c2ccccc2)c1
REMARK SMILES IDX 7 1 8 2 9 3 10 4 6 7 2 8 3 9 29 10 4 11 5 12 1 13 11 14
REMARK SMILES IDX 12 15 13 16 22 17 14 18 20 19 15 20 19 21 21 22 16 23 18 24
REMARK SMILES IDX 17 25 23 27 24 28 28 29 25 30 27 31 26 32
REMARK H PARENT 7 5 10 6 11 26
ROOT
ATOM      1  N   UNL     1      32.027  25.453 -22.628  1.00  0.00    -0.307 N 
ATOM      2  C   UNL     1      32.351  25.737 -21.317  1.00  0.00     0.337 C 
ATOM      3  O   UNL     1      32.237  24.994 -20.347  1.00  0.00    -0.247 OA
ATOM      4  N   UNL     1      32.802  27.045 -21.188  1.00  0.00    -0.249 N 
ATOM      5  H   UNL     1      32.026  26.243 -23.254  1.00  0.00     0.171 HD
ATOM      6  H   UNL     1      33.316  27.474 -21.954  1.00  0.00     0.193 HD
ENDROOT
BRANCH   1   7
ATOM      7  C   UNL     1      31.581  24.228 -23.159  1.00  0.00     0.043 A 
ATOM      8  C   UNL     1      32.188  22.161 -24.314  1.00  0.00    -0.049 A 
ATOM      9  C   UNL     1      30.853  21.751 -24.262  1.00  0.00     0.003 A 
ATOM     10  C   UNL     1      32.540  23.406 -23.769  1.00  0.00     0.029 A 
ATOM     11  C   UNL     1      29.894  22.559 -23.654  1.00  0.00     0.002 A 
ATOM     12  C   UNL     1      30.258  23.790 -23.101  1.00  0.00     0.026 A 
ATOM     13  C   UNL     1      33.218  21.311 -24.995  1.00  0.00     0.044 C 
ENDBRANCH   1   7
BRANCH   4  14
ATOM     14  N   UNL     1      33.353  27.382 -19.933  1.00  0.00    -0.265 N 
ATOM     15  C   UNL     1      34.700  27.704 -19.931  1.00  0.00     0.230 C 
ATOM     16  N   UNL     1      35.408  27.342 -20.971  1.00  0.00    -0.213 NA
ATOM     17  N   UNL     1      35.255  28.429 -18.860  1.00  0.00    -0.245 N 
ATOM     18  C   UNL     1      36.748  27.715 -21.058  1.00  0.00     0.080 A 
ATOM     19  C   UNL     1      36.576  28.896 -18.917  1.00  0.00     0.267 C 
ATOM     20  C   UNL     1      37.489  27.306 -22.170  1.00  0.00     0.029 A 
ATOM     21  C   UNL     1      37.366  28.501 -20.094  1.00  0.00     0.066 A 
ATOM     22  O   UNL     1      37.146  29.571 -18.058  1.00  0.00    -0.268 OA
ATOM     23  C   UNL     1      38.828  27.679 -22.314  1.00  0.00     0.002 A 
ATOM     24  C   UNL     1      38.709  28.880 -20.228  1.00  0.00     0.016 A 
ATOM     25  C   UNL     1      39.438  28.468 -21.342  1.00  0.00     0.001 A 
ATOM     26  H   UNL     1      32.715  27.936 -19.358  1.00  0.00     0.191 HD
BRANCH  17  27
ATOM     27  C   UNL     1      34.501  28.674 -17.657  1.00  0.00     0.052 A 
ATOM     28  C   UNL     1      34.661  27.856 -16.526  1.00  0.00     0.027 A 
ATOM     29  C   UNL     1      33.602  29.748 -17.575  1.00  0.00     0.027 A 
ATOM     30  C   UNL     1      33.921  28.085 -15.362  1.00  0.00     0.002 A 
ATOM     31  C   UNL     1      32.864  29.977 -16.409  1.00  0.00     0.002 A 
ATOM     32  C   UNL     1      33.021  29.144 -15.306  1.00  0.00     0.000 A 
ENDBRANCH  17  27
ENDBRANCH   4  14
TORSDOF 3
ENDMDL
MODEL 8
REMARK VINA RESULT:    -5.932      1.482      4.580
REMARK INTER + INTRA:          -7.391
REMARK INTER:                  -6.681
REMARK INTRA:                  -0.711
REMARK UNBOUND:                -0.419
REMARK SMILES Cc1cccc(NC(=O)NNc2nc3ccccc3c(=O)n2-c2ccccc2)c1
REMARK SMILES IDX 7 1 8 2 9 3 10 4 6 7 2 8 3 9 29 10 4 11 5 12 1 13 11 14
REMARK SMILES IDX 12 15 13 16 22 17 14 18 20 19 15 20 19 21 21 22 16 23 18 24
REMARK SMILES IDX 17 25 23 27 24 28 28 29 25 30 27 31 26 32
REMARK H PARENT 7 5 10 6 11 26
ROOT
ATOM      1  N   UNL     1      32.060  22.317 -22.159  1.00  0.00    -0.307 N 
ATOM      2  C   UNL     1      31.594  22.394 -20.863  1.00  0.00     0.337 C 
ATOM      3  O   UNL     1      31.689  23.349 -20.097  1.00  0.00    -0.247 OA
ATOM      4  N   UNL     1      31.013  21.196 -20.469  1.00  0.00    -0.249 N 
ATOM      5  H   UNL     1      32.044  21.396 -22.570  1.00  0.00     0.171 HD
ATOM      6  H   UNL     1      30.533  20.623 -21.160  1.00  0.00     0.193 HD
ENDROOT
BRANCH   1   7
ATOM      7  C   UNL     1      32.665  23.335 -22.920  1.00  0.00     0.043 A 
ATOM      8  C   UNL     1      32.373  25.472 -24.070  1.00  0.00    -0.049 A 
ATOM      9  C   UNL     1      33.721  25.449 -24.437  1.00  0.00     0.003 A 
ATOM     10  C   UNL     1      31.852  24.406 -23.320  1.00  0.00     0.029 A 
ATOM     11  C   UNL     1      34.537  24.391 -24.040  1.00  0.00     0.002 A 
ATOM     12  C   UNL     1      34.012  23.341 -23.281  1.00  0.00     0.026 A 
ATOM     13  C   UNL     1      31.482  26.591 -24.521  1.00  0.00     0.044 C 
ENDBRANCH   1   7
BRANCH   4  14
ATOM     14  N   UNL     1      30.323  21.223 -19.239  1.00  0.00    -0.265 N 
ATOM     15  C   UNL     1      29.007  20.791 -19.274  1.00  0.00     0.230 C 
ATOM     16  N   UNL     1      28.422  20.734 -20.444  1.00  0.00    -0.213 NA
ATOM     17  N   UNL     1      28.359  20.394 -18.090  1.00  0.00    -0.245 N 
ATOM     18  C   UNL     1      27.129  20.225 -20.545  1.00  0.00     0.080 A 
ATOM     19  C   UNL     1      27.085  19.808 -18.130  1.00  0.00     0.267 C 
ATOM     20  C   UNL     1      26.519  20.186 -21.802  1.00  0.00     0.029 A 
ATOM     21  C   UNL     1      26.435  19.731 -19.449  1.00  0.00     0.066 A 
ATOM     22  O   UNL     1      26.446  19.390 -17.163  1.00  0.00    -0.268 OA
ATOM     23  C   UNL     1      25.233  19.661 -21.957  1.00  0.00     0.002 A 
ATOM     24  C   UNL     1      25.145  19.201 -19.593  1.00  0.00     0.016 A 
ATOM     25  C   UNL     1      24.546  19.167 -20.851  1.00  0.00     0.001 A 
ATOM     26  H   UNL     1      30.910  20.944 -18.450  1.00  0.00     0.191 HD
BRANCH  17  27
ATOM     27  C   UNL     1      28.961  20.617 -16.801  1.00  0.00     0.052 A 
ATOM     28  C   UNL     1      29.782  19.642 -16.210  1.00  0.00     0.027 A 
ATOM     29  C   UNL     1      28.761  21.820 -16.108  1.00  0.00     0.027 A 
ATOM     30  C   UNL     1      30.357  19.851 -14.953  1.00  0.00     0.002 A 
ATOM     31  C   UNL     1      29.338  22.030 -14.851  1.00  0.00     0.002 A 
ATOM     32  C   UNL     1      30.131  21.044 -14.273  1.00  0.00     0.000 A 
ENDBRANCH  17  27
ENDBRANCH   4  14
TORSDOF 3
ENDMDL
MODEL 9
REMARK VINA RESULT:    -5.883      6.724     10.452
REMARK INTER + INTRA:          -7.334
REMARK INTER:                  -6.578
REMARK INTRA:                  -0.757
REMARK UNBOUND:                -0.419
REMARK SMILES Cc1cccc(NC(=O)NNc2nc3ccccc3c(=O)n2-c2ccccc2)c1
REMARK SMILES IDX 7 1 8 2 9 3 10 4 6 7 2 8 3 9 29 10 4 11 5 12 1 13 11 14
REMARK SMILES IDX 12 15 13 16 22 17 14 18 20 19 15 20 19 21 21 22 16 23 18 24
REMARK SMILES IDX 17 25 23 27 24 28 28 29 25 30 27 31 26 32
REMARK H PARENT 7 5 10 6 11 26
ROOT
ATOM      1  N   UNL     1      31.860  26.598 -21.501  1.00  0.00    -0.307 N 
ATOM      2  C   UNL     1      33.008  26.808 -20.765  1.00  0.00     0.337 C 
ATOM      3  O   UNL     1      33.847  25.971 -20.445  1.00  0.00    -0.247 OA
ATOM      4  N   UNL     1      33.103  28.132 -20.355  1.00  0.00    -0.249 N 
ATOM      5  H   UNL     1      31.209  27.368 -21.514  1.00  0.00     0.171 HD
ATOM      6  H   UNL     1      32.727  28.866 -20.950  1.00  0.00     0.193 HD
ENDROOT
BRANCH   1   7
ATOM      7  C   UNL     1      31.440  25.407 -22.122  1.00  0.00     0.043 A 
ATOM      8  C   UNL     1      30.432  23.199 -21.833  1.00  0.00    -0.049 A 
ATOM      9  C   UNL     1      30.547  22.977 -23.208  1.00  0.00     0.003 A 
ATOM     10  C   UNL     1      30.890  24.414 -21.298  1.00  0.00     0.029 A 
ATOM     11  C   UNL     1      31.087  23.960 -24.034  1.00  0.00     0.002 A 
ATOM     12  C   UNL     1      31.528  25.172 -23.494  1.00  0.00     0.026 A 
ATOM     13  C   UNL     1      29.881  22.133 -20.934  1.00  0.00     0.044 C 
ENDBRANCH   1   7
BRANCH   4  14
ATOM     14  N   UNL     1      34.332  28.507 -19.772  1.00  0.00    -0.265 N 
ATOM     15  C   UNL     1      34.270  28.936 -18.455  1.00  0.00     0.230 C 
ATOM     16  N   UNL     1      33.098  29.286 -17.990  1.00  0.00    -0.213 NA
ATOM     17  N   UNL     1      35.428  28.946 -17.657  1.00  0.00    -0.245 N 
ATOM     18  C   UNL     1      32.965  29.643 -16.649  1.00  0.00     0.080 A 
ATOM     19  C   UNL     1      35.353  29.226 -16.285  1.00  0.00     0.267 C 
ATOM     20  C   UNL     1      31.707  30.027 -16.178  1.00  0.00     0.029 A 
ATOM     21  C   UNL     1      34.031  29.606 -15.761  1.00  0.00     0.066 A 
ATOM     22  O   UNL     1      36.294  29.223 -15.490  1.00  0.00    -0.268 OA
ATOM     23  C   UNL     1      31.520  30.368 -14.835  1.00  0.00     0.002 A 
ATOM     24  C   UNL     1      33.855  29.945 -14.412  1.00  0.00     0.016 A 
ATOM     25  C   UNL     1      32.596  30.326 -13.951  1.00  0.00     0.001 A 
ATOM     26  H   UNL     1      35.105  27.901 -20.054  1.00  0.00     0.191 HD
BRANCH  17  27
ATOM     27  C   UNL     1      36.729  28.713 -18.230  1.00  0.00     0.052 A 
ATOM     28  C   UNL     1      37.507  29.781 -18.710  1.00  0.00     0.027 A 
ATOM     29  C   UNL     1      37.265  27.419 -18.307  1.00  0.00     0.027 A 
ATOM     30  C   UNL     1      38.765  29.556 -19.278  1.00  0.00     0.002 A 
ATOM     31  C   UNL     1      38.524  27.195 -18.873  1.00  0.00     0.002 A 
ATOM     32  C   UNL     1      39.271  28.263 -19.361  1.00  0.00     0.000 A 
ENDBRANCH  17  27
ENDBRANCH   4  14
TORSDOF 3
ENDMDL
