MODEL 1
REMARK VINA RESULT:     1.589      0.000      0.000
REMARK INTER + INTRA:           3.395
REMARK INTER:                   2.146
REMARK INTRA:                   1.248
REMARK UNBOUND:                 1.248
REMARK SMILES CC(C)Oc1cccc(-n2c(NNC(=O)Nc3cccc([N+](=O)[O-])c3)nc3ccccc3c2=O)c1
REMARK SMILES IDX 10 1 11 2 12 3 26 4 27 5 28 6 29 7 30 8 31 9 32 10 33 11
REMARK SMILES IDX 34 12 9 14 5 15 6 16 35 17 7 18 8 19 4 20 2 21 1 22 3 23
REMARK SMILES IDX 13 24 14 25 15 26 16 27 17 30 18 31 25 32 19 33 21 34 20 35
REMARK SMILES IDX 22 36 23 37 24 38
REMARK H PARENT 12 13 13 28 16 29
ROOT
ATOM      1  N   UNL     1      11.190  11.556  -8.722  1.00  0.00    -0.245 N 
ATOM      2  C   UNL     1      12.454  11.272  -8.178  1.00  0.00     0.230 C 
ATOM      3  N   UNL     1      13.602  11.349  -8.957  1.00  0.00    -0.265 N 
ATOM      4  N   UNL     1      12.618  10.983  -6.911  1.00  0.00    -0.213 NA
ATOM      5  C   UNL     1      11.518  11.000  -6.053  1.00  0.00     0.080 A 
ATOM      6  C   UNL     1      11.710  10.667  -4.709  1.00  0.00     0.029 A 
ATOM      7  C   UNL     1      10.643  10.699  -3.806  1.00  0.00     0.002 A 
ATOM      8  C   UNL     1       9.374  11.070  -4.241  1.00  0.00     0.001 A 
ATOM      9  C   UNL     1       9.173  11.406  -5.580  1.00  0.00     0.016 A 
ATOM     10  C   UNL     1      10.249  11.369  -6.477  1.00  0.00     0.066 A 
ATOM     11  C   UNL     1      10.063  11.692  -7.901  1.00  0.00     0.267 C 
ATOM     12  O   UNL     1       8.934  12.019  -8.268  1.00  0.00    -0.268 OA
ATOM     13  H   UNL     1      13.520  11.309  -9.974  1.00  0.00     0.191 HD
ENDROOT
BRANCH   1  14
ATOM     14  C   UNL     1      10.998  11.670 -10.138  1.00  0.00     0.056 A 
ATOM     15  C   UNL     1      11.040  13.026 -12.169  1.00  0.00     0.121 A 
ATOM     16  C   UNL     1      10.653  11.918 -12.918  1.00  0.00     0.046 A 
ATOM     17  C   UNL     1      11.226  12.892 -10.789  1.00  0.00     0.073 A 
ATOM     18  C   UNL     1      10.449  10.688 -12.289  1.00  0.00     0.006 A 
ATOM     19  C   UNL     1      10.624  10.563 -10.910  1.00  0.00     0.027 A 
BRANCH  15  20
ATOM     20  O   UNL     1      11.312  14.272 -12.656  1.00  0.00    -0.491 OA
BRANCH  20  21
ATOM     21  C   UNL     1      12.381  15.021 -12.068  1.00  0.00     0.167 C 
ATOM     22  C   UNL     1      11.862  16.389 -11.637  1.00  0.00     0.052 C 
ATOM     23  C   UNL     1      13.452  15.179 -13.145  1.00  0.00     0.052 C 
ENDBRANCH  20  21
ENDBRANCH  15  20
ENDBRANCH   1  14
BRANCH   3  24
ATOM     24  N   UNL     1      14.707  10.601  -8.469  1.00  0.00    -0.249 N 
ATOM     25  C   UNL     1      14.380   9.344  -7.976  1.00  0.00     0.337 C 
ATOM     26  O   UNL     1      13.268   8.857  -8.148  1.00  0.00    -0.247 OA
ATOM     27  N   UNL     1      15.451   8.761  -7.334  1.00  0.00    -0.306 N 
ATOM     28  H   UNL     1      15.312  11.187  -7.892  1.00  0.00     0.193 HD
ATOM     29  H   UNL     1      16.329   9.250  -7.437  1.00  0.00     0.171 HD
BRANCH  27  30
ATOM     30  C   UNL     1      15.484   7.516  -6.676  1.00  0.00     0.049 A 
ATOM     31  C   UNL     1      14.630   7.358  -5.574  1.00  0.00     0.027 A 
ATOM     32  C   UNL     1      16.294   6.447  -7.069  1.00  0.00     0.111 A 
ATOM     33  C   UNL     1      14.586   6.154  -4.865  1.00  0.00     0.009 A 
ATOM     34  C   UNL     1      16.249   5.241  -6.353  1.00  0.00     0.271 A 
ATOM     35  C   UNL     1      15.396   5.089  -5.252  1.00  0.00     0.086 A 
BRANCH  34  36
ATOM     36  N   UNL     1      17.096   4.115  -6.768  1.00  0.00     0.062 N 
ATOM     37  O   UNL     1      17.249   3.186  -5.960  1.00  0.00    -0.258 OA
ATOM     38  O   UNL     1      17.608   4.157  -7.895  1.00  0.00    -0.258 OA
ENDBRANCH  34  36
ENDBRANCH  27  30
ENDBRANCH   3  24
TORSDOF 6
ENDMDL
MODEL 2
REMARK VINA RESULT:     1.995      1.463      2.009
REMARK INTER + INTRA:           3.943
REMARK INTER:                  -0.196
REMARK INTRA:                   4.139
REMARK UNBOUND:                 1.248
REMARK SMILES CC(C)Oc1cccc(-n2c(NNC(=O)Nc3cccc([N+](=O)[O-])c3)nc3ccccc3c2=O)c1
REMARK SMILES IDX 10 1 11 2 12 3 26 4 27 5 28 6 29 7 30 8 31 9 32 10 33 11
REMARK SMILES IDX 34 12 9 14 5 15 6 16 35 17 7 18 8 19 4 20 2 21 1 22 3 23
REMARK SMILES IDX 13 24 14 25 15 26 16 27 17 30 18 31 25 32 19 33 21 34 20 35
REMARK SMILES IDX 22 36 23 37 24 38
REMARK H PARENT 12 13 13 28 16 29
ROOT
ATOM      1  N   UNL     1      12.320  11.846  -8.437  1.00  0.00    -0.245 N 
ATOM      2  C   UNL     1      13.241  11.186  -7.606  1.00  0.00     0.230 C 
ATOM      3  N   UNL     1      14.606  11.410  -7.731  1.00  0.00    -0.265 N 
ATOM      4  N   UNL     1      12.859  10.382  -6.644  1.00  0.00    -0.213 NA
ATOM      5  C   UNL     1      11.498  10.205  -6.396  1.00  0.00     0.080 A 
ATOM      6  C   UNL     1      11.111   9.326  -5.379  1.00  0.00     0.029 A 
ATOM      7  C   UNL     1       9.760   9.137  -5.075  1.00  0.00     0.002 A 
ATOM      8  C   UNL     1       8.783   9.832  -5.783  1.00  0.00     0.001 A 
ATOM      9  C   UNL     1       9.159  10.712  -6.797  1.00  0.00     0.016 A 
ATOM     10  C   UNL     1      10.516  10.893  -7.095  1.00  0.00     0.066 A 
ATOM     11  C   UNL     1      10.944  11.794  -8.178  1.00  0.00     0.267 C 
ATOM     12  O   UNL     1      10.067  12.401  -8.793  1.00  0.00    -0.268 OA
ATOM     13  H   UNL     1      14.971  11.802  -8.600  1.00  0.00     0.191 HD
ENDROOT
BRANCH   1  14
ATOM     14  C   UNL     1      12.749  12.557  -9.606  1.00  0.00     0.056 A 
ATOM     15  C   UNL     1      12.225  13.584 -11.759  1.00  0.00     0.121 A 
ATOM     16  C   UNL     1      13.554  13.975 -11.897  1.00  0.00     0.046 A 
ATOM     17  C   UNL     1      11.827  12.894 -10.610  1.00  0.00     0.073 A 
ATOM     18  C   UNL     1      14.478  13.671 -10.895  1.00  0.00     0.006 A 
ATOM     19  C   UNL     1      14.077  12.972  -9.755  1.00  0.00     0.027 A 
BRANCH  15  20
ATOM     20  O   UNL     1      11.213  13.848 -12.637  1.00  0.00    -0.491 OA
BRANCH  20  21
ATOM     21  C   UNL     1      11.130  15.154 -13.216  1.00  0.00     0.167 C 
ATOM     22  C   UNL     1      12.292  15.351 -14.184  1.00  0.00     0.052 C 
ATOM     23  C   UNL     1      11.228  16.153 -12.064  1.00  0.00     0.052 C 
ENDBRANCH  20  21
ENDBRANCH  15  20
ENDBRANCH   1  14
BRANCH   3  24
ATOM     24  N   UNL     1      15.432  10.378  -7.210  1.00  0.00    -0.249 N 
ATOM     25  C   UNL     1      15.007   9.090  -7.516  1.00  0.00     0.337 C 
ATOM     26  O   UNL     1      14.121   8.886  -8.339  1.00  0.00    -0.247 OA
ATOM     27  N   UNL     1      15.723   8.145  -6.814  1.00  0.00    -0.306 N 
ATOM     28  H   UNL     1      15.679  10.570  -6.238  1.00  0.00     0.193 HD
ATOM     29  H   UNL     1      16.522   8.502  -6.308  1.00  0.00     0.171 HD
BRANCH  27  30
ATOM     30  C   UNL     1      15.548   6.748  -6.833  1.00  0.00     0.049 A 
ATOM     31  C   UNL     1      14.277   6.271  -7.189  1.00  0.00     0.027 A 
ATOM     32  C   UNL     1      16.560   5.830  -6.538  1.00  0.00     0.111 A 
ATOM     33  C   UNL     1      14.012   4.901  -7.245  1.00  0.00     0.009 A 
ATOM     34  C   UNL     1      16.290   4.455  -6.592  1.00  0.00     0.271 A 
ATOM     35  C   UNL     1      15.018   3.985  -6.947  1.00  0.00     0.086 A 
BRANCH  34  36
ATOM     36  N   UNL     1      17.354   3.489  -6.288  1.00  0.00     0.062 N 
ATOM     37  O   UNL     1      18.356   3.491  -7.021  1.00  0.00    -0.258 OA
ATOM     38  O   UNL     1      17.191   2.729  -5.324  1.00  0.00    -0.258 OA
ENDBRANCH  34  36
ENDBRANCH  27  30
ENDBRANCH   3  24
TORSDOF 6
ENDMDL
MODEL 3
REMARK VINA RESULT:     3.789      2.365      8.818
REMARK INTER + INTRA:           6.366
REMARK INTER:                   3.811
REMARK INTRA:                   2.555
REMARK UNBOUND:                 1.248
REMARK SMILES CC(C)Oc1cccc(-n2c(NNC(=O)Nc3cccc([N+](=O)[O-])c3)nc3ccccc3c2=O)c1
REMARK SMILES IDX 10 1 11 2 12 3 26 4 27 5 28 6 29 7 30 8 31 9 32 10 33 11
REMARK SMILES IDX 34 12 9 14 5 15 6 16 35 17 7 18 8 19 4 20 2 21 1 22 3 23
REMARK SMILES IDX 13 24 14 25 15 26 16 27 17 30 18 31 25 32 19 33 21 34 20 35
REMARK SMILES IDX 22 36 23 37 24 38
REMARK H PARENT 12 13 13 28 16 29
ROOT
ATOM      1  N   UNL     1      13.474   9.259  -6.821  1.00  0.00    -0.245 N 
ATOM      2  C   UNL     1      13.440  10.415  -7.617  1.00  0.00     0.230 C 
ATOM      3  N   UNL     1      14.334  10.589  -8.666  1.00  0.00    -0.265 N 
ATOM      4  N   UNL     1      12.536  11.349  -7.451  1.00  0.00    -0.213 NA
ATOM      5  C   UNL     1      11.541  11.180  -6.487  1.00  0.00     0.080 A 
ATOM      6  C   UNL     1      10.599  12.197  -6.310  1.00  0.00     0.029 A 
ATOM      7  C   UNL     1       9.567  12.061  -5.378  1.00  0.00     0.002 A 
ATOM      8  C   UNL     1       9.466  10.899  -4.617  1.00  0.00     0.001 A 
ATOM      9  C   UNL     1      10.400   9.878  -4.788  1.00  0.00     0.016 A 
ATOM     10  C   UNL     1      11.432  10.026  -5.724  1.00  0.00     0.066 A 
ATOM     11  C   UNL     1      12.448   8.977  -5.908  1.00  0.00     0.267 C 
ATOM     12  O   UNL     1      12.343   7.956  -5.228  1.00  0.00    -0.268 OA
ATOM     13  H   UNL     1      15.199  10.047  -8.681  1.00  0.00     0.191 HD
ENDROOT
BRANCH   1  14
ATOM     14  C   UNL     1      14.580   8.349  -6.877  1.00  0.00     0.056 A 
ATOM     15  C   UNL     1      15.541   6.164  -6.358  1.00  0.00     0.121 A 
ATOM     16  C   UNL     1      16.724   6.531  -6.995  1.00  0.00     0.046 A 
ATOM     17  C   UNL     1      14.473   7.066  -6.317  1.00  0.00     0.073 A 
ATOM     18  C   UNL     1      16.837   7.794  -7.581  1.00  0.00     0.006 A 
ATOM     19  C   UNL     1      15.771   8.695  -7.527  1.00  0.00     0.027 A 
BRANCH  15  20
ATOM     20  O   UNL     1      15.280   4.954  -5.781  1.00  0.00    -0.491 OA
BRANCH  20  21
ATOM     21  C   UNL     1      15.673   3.765  -6.474  1.00  0.00     0.167 C 
ATOM     22  C   UNL     1      17.188   3.610  -6.391  1.00  0.00     0.052 C 
ATOM     23  C   UNL     1      15.240   3.940  -7.928  1.00  0.00     0.052 C 
ENDBRANCH  20  21
ENDBRANCH  15  20
ENDBRANCH   1  14
BRANCH   3  24
ATOM     24  N   UNL     1      14.529  11.937  -9.070  1.00  0.00    -0.249 N 
ATOM     25  C   UNL     1      13.570  12.419  -9.953  1.00  0.00     0.337 C 
ATOM     26  O   UNL     1      12.540  11.795 -10.184  1.00  0.00    -0.247 OA
ATOM     27  N   UNL     1      13.929  13.648 -10.464  1.00  0.00    -0.306 N 
ATOM     28  H   UNL     1      15.508  12.104  -9.307  1.00  0.00     0.193 HD
ATOM     29  H   UNL     1      14.735  14.073 -10.029  1.00  0.00     0.171 HD
BRANCH  27  30
ATOM     30  C   UNL     1      13.231  14.420 -11.412  1.00  0.00     0.049 A 
ATOM     31  C   UNL     1      12.286  15.333 -10.918  1.00  0.00     0.027 A 
ATOM     32  C   UNL     1      13.440  14.338 -12.792  1.00  0.00     0.111 A 
ATOM     33  C   UNL     1      11.553  16.149 -11.783  1.00  0.00     0.009 A 
ATOM     34  C   UNL     1      12.699  15.157 -13.657  1.00  0.00     0.271 A 
ATOM     35  C   UNL     1      11.757  16.065 -13.158  1.00  0.00     0.086 A 
BRANCH  34  36
ATOM     36  N   UNL     1      12.922  15.076 -15.107  1.00  0.00     0.062 N 
ATOM     37  O   UNL     1      13.958  14.514 -15.497  1.00  0.00    -0.258 OA
ATOM     38  O   UNL     1      12.069  15.573 -15.855  1.00  0.00    -0.258 OA
ENDBRANCH  34  36
ENDBRANCH  27  30
ENDBRANCH   3  24
TORSDOF 6
ENDMDL
MODEL 4
REMARK VINA RESULT:     4.417      2.407      8.682
REMARK INTER + INTRA:           7.214
REMARK INTER:                   3.587
REMARK INTRA:                   3.628
REMARK UNBOUND:                 1.248
REMARK SMILES CC(C)Oc1cccc(-n2c(NNC(=O)Nc3cccc([N+](=O)[O-])c3)nc3ccccc3c2=O)c1
REMARK SMILES IDX 10 1 11 2 12 3 26 4 27 5 28 6 29 7 30 8 31 9 32 10 33 11
REMARK SMILES IDX 34 12 9 14 5 15 6 16 35 17 7 18 8 19 4 20 2 21 1 22 3 23
REMARK SMILES IDX 13 24 14 25 15 26 16 27 17 30 18 31 25 32 19 33 21 34 20 35
REMARK SMILES IDX 22 36 23 37 24 38
REMARK H PARENT 12 13 13 28 16 29
ROOT
ATOM      1  N   UNL     1      12.840   9.138  -6.273  1.00  0.00    -0.245 N 
ATOM      2  C   UNL     1      13.141  10.111  -7.240  1.00  0.00     0.230 C 
ATOM      3  N   UNL     1      14.192   9.935  -8.130  1.00  0.00    -0.265 N 
ATOM      4  N   UNL     1      12.417  11.194  -7.388  1.00  0.00    -0.213 NA
ATOM      5  C   UNL     1      11.280  11.374  -6.599  1.00  0.00     0.080 A 
ATOM      6  C   UNL     1      10.533  12.545  -6.756  1.00  0.00     0.029 A 
ATOM      7  C   UNL     1       9.371  12.757  -6.009  1.00  0.00     0.002 A 
ATOM      8  C   UNL     1       8.944  11.793  -5.099  1.00  0.00     0.001 A 
ATOM      9  C   UNL     1       9.681  10.621  -4.937  1.00  0.00     0.016 A 
ATOM     10  C   UNL     1      10.845  10.420  -5.690  1.00  0.00     0.066 A 
ATOM     11  C   UNL     1      11.659   9.205  -5.521  1.00  0.00     0.267 C 
ATOM     12  O   UNL     1      11.266   8.363  -4.714  1.00  0.00    -0.268 OA
ATOM     13  H   UNL     1      14.932   9.268  -7.906  1.00  0.00     0.191 HD
ENDROOT
BRANCH   1  14
ATOM     14  C   UNL     1      13.749   8.067  -5.987  1.00  0.00     0.056 A 
ATOM     15  C   UNL     1      14.996   6.104  -6.732  1.00  0.00     0.121 A 
ATOM     16  C   UNL     1      15.551   5.972  -5.462  1.00  0.00     0.046 A 
ATOM     17  C   UNL     1      14.114   7.157  -6.992  1.00  0.00     0.073 A 
ATOM     18  C   UNL     1      15.220   6.886  -4.459  1.00  0.00     0.006 A 
ATOM     19  C   UNL     1      14.329   7.929  -4.720  1.00  0.00     0.027 A 
BRANCH  15  20
ATOM     20  O   UNL     1      15.261   5.311  -7.812  1.00  0.00    -0.491 OA
BRANCH  20  21
ATOM     21  C   UNL     1      15.704   3.969  -7.586  1.00  0.00     0.167 C 
ATOM     22  C   UNL     1      17.226   3.920  -7.668  1.00  0.00     0.052 C 
ATOM     23  C   UNL     1      15.089   3.111  -8.691  1.00  0.00     0.052 C 
ENDBRANCH  20  21
ENDBRANCH  15  20
ENDBRANCH   1  14
BRANCH   3  24
ATOM     24  N   UNL     1      14.696  11.132  -8.707  1.00  0.00    -0.249 N 
ATOM     25  C   UNL     1      13.748  11.890  -9.384  1.00  0.00     0.337 C 
ATOM     26  O   UNL     1      12.550  11.642  -9.300  1.00  0.00    -0.247 OA
ATOM     27  N   UNL     1      14.336  12.917 -10.090  1.00  0.00    -0.306 N 
ATOM     28  H   UNL     1      15.581  10.957  -9.184  1.00  0.00     0.193 HD
ATOM     29  H   UNL     1      15.319  13.056  -9.903  1.00  0.00     0.171 HD
BRANCH  27  30
ATOM     30  C   UNL     1      13.701  13.859 -10.922  1.00  0.00     0.049 A 
ATOM     31  C   UNL     1      14.121  13.909 -12.261  1.00  0.00     0.027 A 
ATOM     32  C   UNL     1      12.684  14.718 -10.496  1.00  0.00     0.111 A 
ATOM     33  C   UNL     1      13.542  14.804 -13.163  1.00  0.00     0.009 A 
ATOM     34  C   UNL     1      12.107  15.617 -11.405  1.00  0.00     0.271 A 
ATOM     35  C   UNL     1      12.531  15.663 -12.739  1.00  0.00     0.086 A 
BRANCH  34  36
ATOM     36  N   UNL     1      11.034  16.516 -10.960  1.00  0.00     0.062 N 
ATOM     37  O   UNL     1      10.334  17.050 -11.835  1.00  0.00    -0.258 OA
ATOM     38  O   UNL     1      10.890  16.691  -9.742  1.00  0.00    -0.258 OA
ENDBRANCH  34  36
ENDBRANCH  27  30
ENDBRANCH   3  24
TORSDOF 6
ENDMDL
