MODEL 1
REMARK VINA RESULT:    -2.524      0.000      0.000
REMARK INTER + INTRA:           2.508
REMARK INTER:                  -3.557
REMARK INTRA:                   6.065
REMARK UNBOUND:                 6.065
REMARK SMILES CCOC(=O)c1cccc(NC(=O)NNc2nc3ccccc3c(=O)n2-c2ccc(OC)cc2)c1
REMARK SMILES IDX 6 1 7 2 8 3 9 4 10 5 35 6 4 7 5 8 3 9 2 10 1 11 11 12 12 13
REMARK SMILES IDX 13 14 14 15 15 18 16 19 17 20 26 21 18 22 24 23 19 24 23 25
REMARK SMILES IDX 25 26 20 27 22 28 21 29 27 31 28 32 34 33 29 34 33 35 30 36
REMARK SMILES IDX 31 37 32 38
REMARK H PARENT 11 16 14 17 15 30
ROOT
ATOM      1  C   UNL     1      12.630  14.706 -12.124  1.00  0.00     0.062 A 
ATOM      2  C   UNL     1      11.715  15.353 -11.286  1.00  0.00     0.016 A 
ATOM      3  C   UNL     1      11.744  15.110  -9.914  1.00  0.00     0.003 A 
ATOM      4  C   UNL     1      12.681  14.226  -9.373  1.00  0.00     0.026 A 
ATOM      5  C   UNL     1      13.600  13.576 -10.196  1.00  0.00     0.043 A 
ATOM      6  C   UNL     1      13.570  13.825 -11.572  1.00  0.00     0.041 A 
ENDROOT
BRANCH   1   7
ATOM      7  C   UNL     1      12.648  14.916 -13.596  1.00  0.00     0.338 C 
ATOM      8  O   UNL     1      11.638  15.120 -14.253  1.00  0.00    -0.246 OA
BRANCH   7   9
ATOM      9  O   UNL     1      13.915  14.850 -14.075  1.00  0.00    -0.462 OA
BRANCH   9  10
ATOM     10  C   UNL     1      14.065  14.247 -15.368  1.00  0.00     0.230 C 
ATOM     11  C   UNL     1      13.814  15.282 -16.450  1.00  0.00     0.049 C 
ENDBRANCH   9  10
ENDBRANCH   7   9
ENDBRANCH   1   7
BRANCH   5  12
ATOM     12  N   UNL     1      14.578  12.679  -9.725  1.00  0.00    -0.307 N 
ATOM     13  C   UNL     1      14.382  11.498  -9.042  1.00  0.00     0.337 C 
ATOM     14  O   UNL     1      13.312  10.959  -8.777  1.00  0.00    -0.247 OA
ATOM     15  N   UNL     1      15.599  10.927  -8.680  1.00  0.00    -0.249 N 
ATOM     16  H   UNL     1      15.531  12.852 -10.012  1.00  0.00     0.171 HD
ATOM     17  H   UNL     1      16.296  11.582  -8.323  1.00  0.00     0.193 HD
BRANCH  15  18
ATOM     18  N   UNL     1      15.488   9.803  -7.810  1.00  0.00    -0.265 N 
ATOM     19  C   UNL     1      14.245   9.671  -7.200  1.00  0.00     0.230 C 
ATOM     20  N   UNL     1      13.508  10.751  -7.102  1.00  0.00    -0.213 NA
ATOM     21  N   UNL     1      13.836   8.441  -6.659  1.00  0.00    -0.245 N 
ATOM     22  C   UNL     1      12.285  10.694  -6.434  1.00  0.00     0.080 A 
ATOM     23  C   UNL     1      12.673   8.338  -5.884  1.00  0.00     0.267 C 
ATOM     24  C   UNL     1      11.493  11.845  -6.384  1.00  0.00     0.029 A 
ATOM     25  C   UNL     1      11.837   9.545  -5.796  1.00  0.00     0.066 A 
ATOM     26  O   UNL     1      12.281   7.323  -5.306  1.00  0.00    -0.268 OA
ATOM     27  C   UNL     1      10.270  11.840  -5.709  1.00  0.00     0.002 A 
ATOM     28  C   UNL     1      10.612   9.529  -5.116  1.00  0.00     0.016 A 
ATOM     29  C   UNL     1       9.829  10.682  -5.072  1.00  0.00     0.001 A 
ATOM     30  H   UNL     1      15.902   8.971  -8.225  1.00  0.00     0.191 HD
BRANCH  21  31
ATOM     31  C   UNL     1      14.612   7.251  -6.849  1.00  0.00     0.053 A 
ATOM     32  C   UNL     1      14.224   6.289  -7.789  1.00  0.00     0.031 A 
ATOM     33  C   UNL     1      15.787   7.037  -6.115  1.00  0.00     0.031 A 
ATOM     34  C   UNL     1      14.963   5.112  -7.958  1.00  0.00     0.048 A 
ATOM     35  C   UNL     1      16.526   5.864  -6.290  1.00  0.00     0.048 A 
ATOM     36  C   UNL     1      16.113   4.890  -7.199  1.00  0.00     0.119 A 
BRANCH  36  37
ATOM     37  O   UNL     1      16.920   3.789  -7.274  1.00  0.00    -0.497 OA
ATOM     38  C   UNL     1      17.301   3.192  -6.042  1.00  0.00     0.278 C 
ENDBRANCH  36  37
ENDBRANCH  21  31
ENDBRANCH  15  18
ENDBRANCH   5  12
TORSDOF 7
ENDMDL
MODEL 2
REMARK VINA RESULT:    -1.820      1.827      8.838
REMARK INTER + INTRA:           3.500
REMARK INTER:                   0.709
REMARK INTRA:                   2.791
REMARK UNBOUND:                 6.065
REMARK SMILES CCOC(=O)c1cccc(NC(=O)NNc2nc3ccccc3c(=O)n2-c2ccc(OC)cc2)c1
REMARK SMILES IDX 6 1 7 2 8 3 9 4 10 5 35 6 4 7 5 8 3 9 2 10 1 11 11 12 12 13
REMARK SMILES IDX 13 14 14 15 15 18 16 19 17 20 26 21 18 22 24 23 19 24 23 25
REMARK SMILES IDX 25 26 20 27 22 28 21 29 27 31 28 32 34 33 29 34 33 35 30 36
REMARK SMILES IDX 31 37 32 38
REMARK H PARENT 11 16 14 17 15 30
ROOT
ATOM      1  C   UNL     1      16.079   5.085  -5.400  1.00  0.00     0.062 A 
ATOM      2  C   UNL     1      15.932   5.673  -4.139  1.00  0.00     0.016 A 
ATOM      3  C   UNL     1      15.092   6.774  -3.984  1.00  0.00     0.003 A 
ATOM      4  C   UNL     1      14.396   7.291  -5.081  1.00  0.00     0.026 A 
ATOM      5  C   UNL     1      14.531   6.713  -6.342  1.00  0.00     0.043 A 
ATOM      6  C   UNL     1      15.373   5.607  -6.493  1.00  0.00     0.041 A 
ENDROOT
BRANCH   1   7
ATOM      7  C   UNL     1      16.965   3.913  -5.634  1.00  0.00     0.338 C 
ATOM      8  O   UNL     1      16.792   2.829  -5.100  1.00  0.00    -0.246 OA
BRANCH   7   9
ATOM      9  O   UNL     1      17.956   4.228  -6.505  1.00  0.00    -0.462 OA
BRANCH   9  10
ATOM     10  C   UNL     1      17.574   4.307  -7.886  1.00  0.00     0.230 C 
ATOM     11  C   UNL     1      16.607   3.185  -8.218  1.00  0.00     0.049 C 
ENDBRANCH   9  10
ENDBRANCH   7   9
ENDBRANCH   1   7
BRANCH   5  12
ATOM     12  N   UNL     1      13.858   7.172  -7.491  1.00  0.00    -0.307 N 
ATOM     13  C   UNL     1      13.582   8.475  -7.844  1.00  0.00     0.337 C 
ATOM     14  O   UNL     1      13.936   9.496  -7.264  1.00  0.00    -0.247 OA
ATOM     15  N   UNL     1      12.832   8.522  -9.017  1.00  0.00    -0.249 N 
ATOM     16  H   UNL     1      13.647   6.484  -8.201  1.00  0.00     0.171 HD
ATOM     17  H   UNL     1      12.080   7.834  -9.079  1.00  0.00     0.193 HD
BRANCH  15  18
ATOM     18  N   UNL     1      12.344   9.818  -9.354  1.00  0.00    -0.265 N 
ATOM     19  C   UNL     1      11.841  10.539  -8.276  1.00  0.00     0.230 C 
ATOM     20  N   UNL     1      11.447   9.855  -7.229  1.00  0.00    -0.213 NA
ATOM     21  N   UNL     1      11.708  11.935  -8.343  1.00  0.00    -0.245 N 
ATOM     22  C   UNL     1      10.866  10.519  -6.149  1.00  0.00     0.080 A 
ATOM     23  C   UNL     1      11.037  12.652  -7.343  1.00  0.00     0.267 C 
ATOM     24  C   UNL     1      10.499   9.776  -5.023  1.00  0.00     0.029 A 
ATOM     25  C   UNL     1      10.618  11.885  -6.160  1.00  0.00     0.066 A 
ATOM     26  O   UNL     1      10.803  13.861  -7.357  1.00  0.00    -0.268 OA
ATOM     27  C   UNL     1       9.896  10.395  -3.926  1.00  0.00     0.002 A 
ATOM     28  C   UNL     1      10.013  12.516  -5.065  1.00  0.00     0.016 A 
ATOM     29  C   UNL     1       9.650  11.766  -3.947  1.00  0.00     0.001 A 
ATOM     30  H   UNL     1      12.976  10.299  -9.990  1.00  0.00     0.191 HD
BRANCH  21  31
ATOM     31  C   UNL     1      12.221  12.678  -9.457  1.00  0.00     0.053 A 
ATOM     32  C   UNL     1      11.390  13.021 -10.530  1.00  0.00     0.031 A 
ATOM     33  C   UNL     1      13.558  13.099  -9.482  1.00  0.00     0.031 A 
ATOM     34  C   UNL     1      11.894  13.722 -11.632  1.00  0.00     0.048 A 
ATOM     35  C   UNL     1      14.057  13.804 -10.581  1.00  0.00     0.048 A 
ATOM     36  C   UNL     1      13.234  14.107 -11.666  1.00  0.00     0.119 A 
BRANCH  36  37
ATOM     37  O   UNL     1      13.843  14.798 -12.677  1.00  0.00    -0.497 OA
ATOM     38  C   UNL     1      13.396  14.522 -13.998  1.00  0.00     0.278 C 
ENDBRANCH  36  37
ENDBRANCH  21  31
ENDBRANCH  15  18
ENDBRANCH   5  12
TORSDOF 7
ENDMDL
MODEL 3
REMARK VINA RESULT:    -0.282      1.757      8.834
REMARK INTER + INTRA:           5.668
REMARK INTER:                   1.317
REMARK INTRA:                   4.351
REMARK UNBOUND:                 6.065
REMARK SMILES CCOC(=O)c1cccc(NC(=O)NNc2nc3ccccc3c(=O)n2-c2ccc(OC)cc2)c1
REMARK SMILES IDX 6 1 7 2 8 3 9 4 10 5 35 6 4 7 5 8 3 9 2 10 1 11 11 12 12 13
REMARK SMILES IDX 13 14 14 15 15 18 16 19 17 20 26 21 18 22 24 23 19 24 23 25
REMARK SMILES IDX 25 26 20 27 22 28 21 29 27 31 28 32 34 33 29 34 33 35 30 36
REMARK SMILES IDX 31 37 32 38
REMARK H PARENT 11 16 14 17 15 30
ROOT
ATOM      1  C   UNL     1      16.440   5.094  -6.230  1.00  0.00     0.062 A 
ATOM      2  C   UNL     1      15.783   4.852  -5.019  1.00  0.00     0.016 A 
ATOM      3  C   UNL     1      15.052   5.872  -4.413  1.00  0.00     0.003 A 
ATOM      4  C   UNL     1      14.972   7.133  -5.009  1.00  0.00     0.026 A 
ATOM      5  C   UNL     1      15.620   7.389  -6.217  1.00  0.00     0.043 A 
ATOM      6  C   UNL     1      16.350   6.361  -6.823  1.00  0.00     0.041 A 
ENDROOT
BRANCH   1   7
ATOM      7  C   UNL     1      17.241   4.052  -6.924  1.00  0.00     0.338 C 
ATOM      8  O   UNL     1      18.135   3.423  -6.378  1.00  0.00    -0.246 OA
BRANCH   7   9
ATOM      9  O   UNL     1      16.836   3.913  -8.211  1.00  0.00    -0.462 OA
BRANCH   9  10
ATOM     10  C   UNL     1      15.671   3.101  -8.416  1.00  0.00     0.230 C 
ATOM     11  C   UNL     1      14.420   3.945  -8.247  1.00  0.00     0.049 C 
ENDBRANCH   9  10
ENDBRANCH   7   9
ENDBRANCH   1   7
BRANCH   5  12
ATOM     12  N   UNL     1      15.580   8.630  -6.882  1.00  0.00    -0.307 N 
ATOM     13  C   UNL     1      14.576   9.124  -7.686  1.00  0.00     0.337 C 
ATOM     14  O   UNL     1      13.486   8.612  -7.918  1.00  0.00    -0.247 OA
ATOM     15  N   UNL     1      14.935  10.358  -8.224  1.00  0.00    -0.249 N 
ATOM     16  H   UNL     1      16.314   9.288  -6.662  1.00  0.00     0.171 HD
ATOM     17  H   UNL     1      15.898  10.421  -8.558  1.00  0.00     0.193 HD
BRANCH  15  18
ATOM     18  N   UNL     1      14.037  10.854  -9.213  1.00  0.00    -0.265 N 
ATOM     19  C   UNL     1      12.721  10.985  -8.779  1.00  0.00     0.230 C 
ATOM     20  N   UNL     1      12.354  10.255  -7.753  1.00  0.00    -0.213 NA
ATOM     21  N   UNL     1      11.819  11.817  -9.460  1.00  0.00    -0.245 N 
ATOM     22  C   UNL     1      11.029  10.289  -7.322  1.00  0.00     0.080 A 
ATOM     23  C   UNL     1      10.452  11.817  -9.148  1.00  0.00     0.267 C 
ATOM     24  C   UNL     1      10.670   9.542  -6.195  1.00  0.00     0.029 A 
ATOM     25  C   UNL     1      10.048  11.017  -7.982  1.00  0.00     0.066 A 
ATOM     26  O   UNL     1       9.578  12.451  -9.741  1.00  0.00    -0.268 OA
ATOM     27  C   UNL     1       9.350   9.529  -5.739  1.00  0.00     0.002 A 
ATOM     28  C   UNL     1       8.721  11.011  -7.533  1.00  0.00     0.016 A 
ATOM     29  C   UNL     1       8.373  10.263  -6.409  1.00  0.00     0.001 A 
ATOM     30  H   UNL     1      14.444  11.633  -9.727  1.00  0.00     0.191 HD
BRANCH  21  31
ATOM     31  C   UNL     1      12.254  12.673 -10.525  1.00  0.00     0.053 A 
ATOM     32  C   UNL     1      11.485  12.814 -11.687  1.00  0.00     0.031 A 
ATOM     33  C   UNL     1      13.444  13.405 -10.414  1.00  0.00     0.031 A 
ATOM     34  C   UNL     1      11.920  13.626 -12.740  1.00  0.00     0.048 A 
ATOM     35  C   UNL     1      13.872  14.221 -11.465  1.00  0.00     0.048 A 
ATOM     36  C   UNL     1      13.123  14.326 -12.637  1.00  0.00     0.119 A 
BRANCH  36  37
ATOM     37  O   UNL     1      13.651  15.152 -13.589  1.00  0.00    -0.497 OA
ATOM     38  C   UNL     1      13.515  14.738 -14.941  1.00  0.00     0.278 C 
ENDBRANCH  36  37
ENDBRANCH  21  31
ENDBRANCH  15  18
ENDBRANCH   5  12
TORSDOF 7
ENDMDL
MODEL 4
REMARK VINA RESULT:    -0.092      1.766      2.431
REMARK INTER + INTRA:           5.936
REMARK INTER:                   2.679
REMARK INTRA:                   3.257
REMARK UNBOUND:                 6.065
REMARK SMILES CCOC(=O)c1cccc(NC(=O)NNc2nc3ccccc3c(=O)n2-c2ccc(OC)cc2)c1
REMARK SMILES IDX 6 1 7 2 8 3 9 4 10 5 35 6 4 7 5 8 3 9 2 10 1 11 11 12 12 13
REMARK SMILES IDX 13 14 14 15 15 18 16 19 17 20 26 21 18 22 24 23 19 24 23 25
REMARK SMILES IDX 25 26 20 27 22 28 21 29 27 31 28 32 34 33 29 34 33 35 30 36
REMARK SMILES IDX 31 37 32 38
REMARK H PARENT 11 16 14 17 15 30
ROOT
ATOM      1  C   UNL     1      11.479  13.775 -12.179  1.00  0.00     0.062 A 
ATOM      2  C   UNL     1      12.002  14.511 -13.247  1.00  0.00     0.016 A 
ATOM      3  C   UNL     1      13.354  14.851 -13.256  1.00  0.00     0.003 A 
ATOM      4  C   UNL     1      14.187  14.460 -12.205  1.00  0.00     0.026 A 
ATOM      5  C   UNL     1      13.680  13.724 -11.135  1.00  0.00     0.043 A 
ATOM      6  C   UNL     1      12.324  13.382 -11.131  1.00  0.00     0.041 A 
ENDROOT
BRANCH   1   7
ATOM      7  C   UNL     1      10.045  13.386 -12.105  1.00  0.00     0.338 C 
ATOM      8  O   UNL     1       9.176  13.911 -12.785  1.00  0.00    -0.246 OA
BRANCH   7   9
ATOM      9  O   UNL     1       9.864  12.392 -11.200  1.00  0.00    -0.462 OA
BRANCH   9  10
ATOM     10  C   UNL     1      10.600  11.185 -11.440  1.00  0.00     0.230 C 
ATOM     11  C   UNL     1      10.158  10.565 -12.754  1.00  0.00     0.049 C 
ENDBRANCH   9  10
ENDBRANCH   7   9
ENDBRANCH   1   7
BRANCH   5  12
ATOM     12  N   UNL     1      14.457  13.287 -10.044  1.00  0.00    -0.307 N 
ATOM     13  C   UNL     1      14.416  12.062  -9.415  1.00  0.00     0.337 C 
ATOM     14  O   UNL     1      13.747  11.084  -9.731  1.00  0.00    -0.247 OA
ATOM     15  N   UNL     1      15.286  12.035  -8.328  1.00  0.00    -0.249 N 
ATOM     16  H   UNL     1      15.213  13.892  -9.753  1.00  0.00     0.171 HD
ATOM     17  H   UNL     1      15.284  12.876  -7.749  1.00  0.00     0.193 HD
BRANCH  15  18
ATOM     18  N   UNL     1      15.171  10.873  -7.510  1.00  0.00    -0.265 N 
ATOM     19  C   UNL     1      13.867  10.562  -7.136  1.00  0.00     0.230 C 
ATOM     20  N   UNL     1      12.990  11.536  -7.157  1.00  0.00    -0.213 NA
ATOM     21  N   UNL     1      13.534   9.271  -6.696  1.00  0.00    -0.245 N 
ATOM     22  C   UNL     1      11.686  11.299  -6.721  1.00  0.00     0.080 A 
ATOM     23  C   UNL     1      12.276   8.992  -6.146  1.00  0.00     0.267 C 
ATOM     24  C   UNL     1      10.754  12.338  -6.799  1.00  0.00     0.029 A 
ATOM     25  C   UNL     1      11.287  10.079  -6.192  1.00  0.00     0.066 A 
ATOM     26  O   UNL     1      11.924   7.914  -5.664  1.00  0.00    -0.268 OA
ATOM     27  C   UNL     1       9.442  12.154  -6.355  1.00  0.00     0.002 A 
ATOM     28  C   UNL     1       9.973   9.883  -5.745  1.00  0.00     0.016 A 
ATOM     29  C   UNL     1       9.051  10.926  -5.826  1.00  0.00     0.001 A 
ATOM     30  H   UNL     1      15.757  10.116  -7.856  1.00  0.00     0.191 HD
BRANCH  21  31
ATOM     31  C   UNL     1      14.481   8.195  -6.761  1.00  0.00     0.053 A 
ATOM     32  C   UNL     1      14.270   7.015  -6.038  1.00  0.00     0.031 A 
ATOM     33  C   UNL     1      15.622   8.294  -7.568  1.00  0.00     0.031 A 
ATOM     34  C   UNL     1      15.205   5.974  -6.076  1.00  0.00     0.048 A 
ATOM     35  C   UNL     1      16.551   7.250  -7.609  1.00  0.00     0.048 A 
ATOM     36  C   UNL     1      16.356   6.092  -6.854  1.00  0.00     0.119 A 
BRANCH  36  37
ATOM     37  O   UNL     1      17.338   5.149  -6.979  1.00  0.00    -0.497 OA
ATOM     38  C   UNL     1      17.089   3.885  -6.380  1.00  0.00     0.278 C 
ENDBRANCH  36  37
ENDBRANCH  21  31
ENDBRANCH  15  18
ENDBRANCH   5  12
TORSDOF 7
ENDMDL
