MODEL 1
REMARK VINA RESULT:    -4.510      0.000      0.000
REMARK INTER + INTRA:          -6.223
REMARK INTER:                  -6.882
REMARK INTRA:                   0.659
REMARK UNBOUND:                 0.659
REMARK SMILES CC(=O)NC(Cc1ccccc1)C(=O)N1CCCC1C(=O)NC(C)C(=O)Nc1ccc2c(C)cc(=O)oc2c1
REMARK SMILES IDX 15 1 16 2 17 3 18 4 19 5 13 6 14 7 5 8 4 9 2 10 3 11 1 12
REMARK SMILES IDX 6 14 7 15 8 16 12 17 9 18 11 19 10 20 20 21 21 22 22 23
REMARK SMILES IDX 23 25 24 26 25 27 26 28 27 29 28 31 29 32 39 33 30 34 38 35
REMARK SMILES IDX 31 36 37 37 32 38 35 39 34 40 36 41 33 42
REMARK H PARENT 4 13 22 24 27 30
ROOT
ATOM      1  N   UNL     1      12.697  13.691  -9.244  1.00  0.00    -0.329 N 
ATOM      2  C   UNL     1      13.685  14.098  -8.257  1.00  0.00     0.120 C 
ATOM      3  C   UNL     1      14.636  12.915  -8.116  1.00  0.00     0.024 C 
ATOM      4  C   UNL     1      14.396  12.099  -9.386  1.00  0.00     0.037 C 
ATOM      5  C   UNL     1      12.901  12.304  -9.642  1.00  0.00     0.174 C 
ENDROOT
BRANCH   1   6
ATOM      6  C   UNL     1      11.729  14.589  -9.645  1.00  0.00     0.246 C 
ATOM      7  O   UNL     1      11.569  15.641  -9.015  1.00  0.00    -0.272 OA
BRANCH   6   8
ATOM      8  C   UNL     1      11.019  14.409 -11.015  1.00  0.00     0.175 C 
BRANCH   8   9
ATOM      9  N   UNL     1      11.250  13.125 -11.694  1.00  0.00    -0.344 N 
ATOM     10  C   UNL     1      10.294  12.133 -11.571  1.00  0.00     0.217 C 
ATOM     11  O   UNL     1       9.414  12.141 -10.724  1.00  0.00    -0.275 OA
ATOM     12  C   UNL     1      10.438  11.050 -12.607  1.00  0.00     0.114 C 
ATOM     13  H   UNL     1      11.670  13.177 -12.613  1.00  0.00     0.164 HD
ENDBRANCH   8   9
BRANCH   8  14
ATOM     14  C   UNL     1      11.428  15.571 -11.948  1.00  0.00     0.070 C 
BRANCH  14  15
ATOM     15  C   UNL     1      12.346  15.176 -13.079  1.00  0.00    -0.045 A 
ATOM     16  C   UNL     1      13.579  14.565 -12.815  1.00  0.00     0.004 A 
ATOM     17  C   UNL     1      11.987  15.427 -14.412  1.00  0.00     0.004 A 
ATOM     18  C   UNL     1      14.433  14.209 -13.860  1.00  0.00     0.000 A 
ATOM     19  C   UNL     1      12.843  15.073 -15.456  1.00  0.00     0.000 A 
ATOM     20  C   UNL     1      14.064  14.462 -15.180  1.00  0.00     0.000 A 
ENDBRANCH  14  15
ENDBRANCH   8  14
ENDBRANCH   6   8
ENDBRANCH   1   6
BRANCH   5  21
ATOM     21  C   UNL     1      12.109  11.317  -8.748  1.00  0.00     0.243 C 
ATOM     22  O   UNL     1      11.820  10.166  -9.072  1.00  0.00    -0.273 OA
ATOM     23  N   UNL     1      11.653  11.853  -7.562  1.00  0.00    -0.343 N 
ATOM     24  H   UNL     1      12.122  12.661  -7.170  1.00  0.00     0.164 HD
BRANCH  23  25
ATOM     25  C   UNL     1      10.725  11.118  -6.698  1.00  0.00     0.168 C 
ATOM     26  C   UNL     1      10.456  11.927  -5.432  1.00  0.00     0.041 C 
BRANCH  25  27
ATOM     27  C   UNL     1      11.256   9.705  -6.353  1.00  0.00     0.246 C 
ATOM     28  O   UNL     1      10.502   8.798  -6.013  1.00  0.00    -0.272 OA
ATOM     29  N   UNL     1      12.634   9.622  -6.452  1.00  0.00    -0.324 N 
ATOM     30  H   UNL     1      13.131  10.513  -6.551  1.00  0.00     0.170 HD
BRANCH  29  31
ATOM     31  C   UNL     1      13.443   8.480  -6.301  1.00  0.00     0.044 A 
ATOM     32  C   UNL     1      14.212   8.397  -5.135  1.00  0.00     0.027 A 
ATOM     33  C   UNL     1      13.524   7.452  -7.235  1.00  0.00     0.074 A 
ATOM     34  C   UNL     1      15.033   7.288  -4.889  1.00  0.00     0.014 A 
ATOM     35  C   UNL     1      14.353   6.355  -6.978  1.00  0.00     0.140 A 
ATOM     36  C   UNL     1      15.115   6.245  -5.813  1.00  0.00     0.021 A 
ATOM     37  O   UNL     1      14.384   5.353  -7.969  1.00  0.00    -0.423 OA
ATOM     38  C   UNL     1      15.947   5.051  -5.620  1.00  0.00    -0.033 C 
ATOM     39  C   UNL     1      15.158   4.218  -7.815  1.00  0.00     0.336 C 
ATOM     40  C   UNL     1      15.949   4.115  -6.579  1.00  0.00     0.098 C 
ATOM     41  O   UNL     1      15.195   3.326  -8.656  1.00  0.00    -0.246 OA
ATOM     42  C   UNL     1      16.770   4.898  -4.374  1.00  0.00     0.045 C 
ENDBRANCH  29  31
ENDBRANCH  25  27
ENDBRANCH  23  25
ENDBRANCH   5  21
TORSDOF 9
ENDMDL
