MODEL 1
REMARK VINA RESULT:    -3.574      0.000      0.000
REMARK INTER + INTRA:          -4.776
REMARK INTER:                  -4.305
REMARK INTRA:                  -0.471
REMARK UNBOUND:                -0.471
REMARK SMILES C[NH+]1CCC23c4c5ccc(O)c4OC2C2OCC2(CCc2ccccc2)CC3C1C5
REMARK SMILES IDX 1 1 2 2 3 3 4 4 5 5 6 6 7 7 8 8 9 9 10 10 12 11 13 12 14 13
REMARK SMILES IDX 15 14 16 15 17 16 18 17 27 18 28 19 29 20 30 21 19 23 20 24
REMARK SMILES IDX 21 25 22 26 26 27 23 28 25 29 24 30 11 31
REMARK H PARENT 2 22 11 32
ROOT
ATOM      1  C   UNL     1       8.668  10.679  -6.927  1.00  0.00     0.332 C 
ATOM      2  N   UNL     1      10.165  10.652  -7.123  1.00  0.00    -0.334 N 
ATOM      3  C   UNL     1      10.790  11.983  -6.762  1.00  0.00     0.263 C 
ATOM      4  C   UNL     1      12.305  11.934  -6.952  1.00  0.00     0.078 C 
ATOM      5  C   UNL     1      12.695  11.311  -8.314  1.00  0.00     0.053 C 
ATOM      6  C   UNL     1      12.236  12.217  -9.379  1.00  0.00     0.012 A 
ATOM      7  C   UNL     1      11.011  12.163 -10.006  1.00  0.00    -0.034 A 
ATOM      8  C   UNL     1      10.779  13.159 -10.951  1.00  0.00     0.008 A 
ATOM      9  C   UNL     1      11.777  14.135 -11.223  1.00  0.00     0.050 A 
ATOM     10  C   UNL     1      13.027  14.101 -10.589  1.00  0.00     0.158 A 
ATOM     11  C   UNL     1      13.255  13.109  -9.675  1.00  0.00     0.165 A 
ATOM     12  O   UNL     1      14.423  12.788  -8.991  1.00  0.00    -0.483 OA
ATOM     13  C   UNL     1      14.155  11.374  -8.718  1.00  0.00     0.214 C 
ATOM     14  C   UNL     1      14.964  10.670  -7.645  1.00  0.00     0.168 C 
ATOM     15  O   UNL     1      16.073   9.932  -8.240  1.00  0.00    -0.373 OA
ATOM     16  C   UNL     1      15.285   8.709  -8.251  1.00  0.00     0.170 C 
ATOM     17  C   UNL     1      14.335   9.284  -7.169  1.00  0.00     0.025 C 
ATOM     18  C   UNL     1      12.807   8.988  -7.439  1.00  0.00     0.023 C 
ATOM     19  C   UNL     1      12.149   9.914  -8.489  1.00  0.00     0.063 C 
ATOM     20  C   UNL     1      10.598  10.079  -8.487  1.00  0.00     0.192 C 
ATOM     21  C   UNL     1      10.109  10.992  -9.690  1.00  0.00     0.101 C 
ATOM     22  H   UNL     1      10.485   9.983  -6.412  1.00  0.00     0.348 HD
ENDROOT
BRANCH  17  23
ATOM     23  C   UNL     1      14.652   8.896  -5.698  1.00  0.00     0.017 C 
BRANCH  23  24
ATOM     24  C   UNL     1      14.162   7.525  -5.201  1.00  0.00     0.036 C 
BRANCH  24  25
ATOM     25  C   UNL     1      14.868   6.332  -5.800  1.00  0.00    -0.048 A 
ATOM     26  C   UNL     1      14.357   5.688  -6.937  1.00  0.00     0.004 A 
ATOM     27  C   UNL     1      16.029   5.824  -5.202  1.00  0.00     0.004 A 
ATOM     28  C   UNL     1      15.007   4.577  -7.475  1.00  0.00     0.000 A 
ATOM     29  C   UNL     1      16.680   4.714  -5.744  1.00  0.00     0.000 A 
ATOM     30  C   UNL     1      16.170   4.093  -6.882  1.00  0.00     0.000 A 
ENDBRANCH  24  25
ENDBRANCH  23  24
ENDBRANCH  17  23
BRANCH  10  31
ATOM     31  O   UNL     1      13.974  15.014 -10.916  1.00  0.00    -0.504 OA
ATOM     32  H   UNL     1      14.037  15.027 -11.890  1.00  0.00     0.293 HD
ENDBRANCH  10  31
TORSDOF 4
ENDMDL
MODEL 2
REMARK VINA RESULT:    -3.571      1.677      7.096
REMARK INTER + INTRA:          -4.772
REMARK INTER:                  -4.281
REMARK INTRA:                  -0.491
REMARK UNBOUND:                -0.471
REMARK SMILES C[NH+]1CCC23c4c5ccc(O)c4OC2C2OCC2(CCc2ccccc2)CC3C1C5
REMARK SMILES IDX 1 1 2 2 3 3 4 4 5 5 6 6 7 7 8 8 9 9 10 10 12 11 13 12 14 13
REMARK SMILES IDX 15 14 16 15 17 16 18 17 27 18 28 19 29 20 30 21 19 23 20 24
REMARK SMILES IDX 21 25 22 26 26 27 23 28 25 29 24 30 11 31
REMARK H PARENT 2 22 11 32
ROOT
ATOM      1  C   UNL     1       8.798   9.591  -7.123  1.00  0.00     0.332 C 
ATOM      2  N   UNL     1      10.063  10.333  -7.484  1.00  0.00    -0.334 N 
ATOM      3  C   UNL     1      10.825   9.619  -8.580  1.00  0.00     0.263 C 
ATOM      4  C   UNL     1      12.094  10.390  -8.942  1.00  0.00     0.078 C 
ATOM      5  C   UNL     1      12.888  10.817  -7.684  1.00  0.00     0.053 C 
ATOM      6  C   UNL     1      13.392   9.599  -7.029  1.00  0.00     0.012 A 
ATOM      7  C   UNL     1      12.738   8.886  -6.048  1.00  0.00    -0.034 A 
ATOM      8  C   UNL     1      13.389   7.735  -5.612  1.00  0.00     0.008 A 
ATOM      9  C   UNL     1      14.648   7.372  -6.163  1.00  0.00     0.050 A 
ATOM     10  C   UNL     1      15.288   8.172  -7.120  1.00  0.00     0.158 A 
ATOM     11  C   UNL     1      14.651   9.311  -7.531  1.00  0.00     0.165 A 
ATOM     12  O   UNL     1      15.102  10.320  -8.377  1.00  0.00    -0.483 OA
ATOM     13  C   UNL     1      14.263  11.421  -7.898  1.00  0.00     0.214 C 
ATOM     14  C   UNL     1      14.098  12.649  -8.772  1.00  0.00     0.168 C 
ATOM     15  O   UNL     1      15.019  13.701  -8.357  1.00  0.00    -0.373 OA
ATOM     16  C   UNL     1      13.986  14.318  -7.539  1.00  0.00     0.170 C 
ATOM     17  C   UNL     1      12.880  13.587  -8.344  1.00  0.00     0.025 C 
ATOM     18  C   UNL     1      11.721  12.998  -7.448  1.00  0.00     0.023 C 
ATOM     19  C   UNL     1      12.068  11.666  -6.741  1.00  0.00     0.063 C 
ATOM     20  C   UNL     1      10.910  10.739  -6.261  1.00  0.00     0.192 C 
ATOM     21  C   UNL     1      11.464   9.471  -5.483  1.00  0.00     0.101 C 
ATOM     22  H   UNL     1       9.715  11.206  -7.899  1.00  0.00     0.348 HD
ENDROOT
BRANCH  17  23
ATOM     23  C   UNL     1      12.234  14.387  -9.510  1.00  0.00     0.017 C 
BRANCH  23  24
ATOM     24  C   UNL     1      11.718  13.590 -10.720  1.00  0.00     0.036 C 
BRANCH  24  25
ATOM     25  C   UNL     1      12.167  14.102 -12.068  1.00  0.00    -0.048 A 
ATOM     26  C   UNL     1      13.518  14.054 -12.443  1.00  0.00     0.004 A 
ATOM     27  C   UNL     1      11.241  14.672 -12.952  1.00  0.00     0.004 A 
ATOM     28  C   UNL     1      13.927  14.544 -13.685  1.00  0.00     0.000 A 
ATOM     29  C   UNL     1      11.652  15.159 -14.195  1.00  0.00     0.000 A 
ATOM     30  C   UNL     1      12.994  15.092 -14.561  1.00  0.00     0.000 A 
ENDBRANCH  24  25
ENDBRANCH  23  24
ENDBRANCH  17  23
BRANCH  10  31
ATOM     31  O   UNL     1      16.514   7.823  -7.581  1.00  0.00    -0.504 OA
ATOM     32  H   UNL     1      17.014   8.648  -7.722  1.00  0.00     0.293 HD
ENDBRANCH  10  31
TORSDOF 4
ENDMDL
MODEL 3
REMARK VINA RESULT:    -2.225      2.297      3.709
REMARK INTER + INTRA:          -3.151
REMARK INTER:                  -2.425
REMARK INTRA:                  -0.725
REMARK UNBOUND:                -0.471
REMARK SMILES C[NH+]1CCC23c4c5ccc(O)c4OC2C2OCC2(CCc2ccccc2)CC3C1C5
REMARK SMILES IDX 1 1 2 2 3 3 4 4 5 5 6 6 7 7 8 8 9 9 10 10 12 11 13 12 14 13
REMARK SMILES IDX 15 14 16 15 17 16 18 17 27 18 28 19 29 20 30 21 19 23 20 24
REMARK SMILES IDX 21 25 22 26 26 27 23 28 25 29 24 30 11 31
REMARK H PARENT 2 22 11 32
ROOT
ATOM      1  C   UNL     1      15.461  14.040  -7.882  1.00  0.00     0.332 C 
ATOM      2  N   UNL     1      14.323  13.048  -7.888  1.00  0.00    -0.334 N 
ATOM      3  C   UNL     1      14.402  12.129  -9.089  1.00  0.00     0.263 C 
ATOM      4  C   UNL     1      13.252  11.123  -9.072  1.00  0.00     0.078 C 
ATOM      5  C   UNL     1      11.893  11.806  -8.787  1.00  0.00     0.053 C 
ATOM      6  C   UNL     1      11.576  12.684  -9.925  1.00  0.00     0.012 A 
ATOM      7  C   UNL     1      11.919  14.013 -10.033  1.00  0.00    -0.034 A 
ATOM      8  C   UNL     1      11.554  14.629 -11.228  1.00  0.00     0.008 A 
ATOM      9  C   UNL     1      10.864  13.895 -12.230  1.00  0.00     0.050 A 
ATOM     10  C   UNL     1      10.494  12.556 -12.035  1.00  0.00     0.158 A 
ATOM     11  C   UNL     1      10.839  11.963 -10.852  1.00  0.00     0.165 A 
ATOM     12  O   UNL     1      10.510  10.701 -10.366  1.00  0.00    -0.483 OA
ATOM     13  C   UNL     1      10.642  10.960  -8.931  1.00  0.00     0.214 C 
ATOM     14  C   UNL     1      10.770   9.781  -7.984  1.00  0.00     0.168 C 
ATOM     15  O   UNL     1       9.474   9.453  -7.398  1.00  0.00    -0.373 OA
ATOM     16  C   UNL     1       9.777  10.251  -6.220  1.00  0.00     0.170 C 
ATOM     17  C   UNL     1      11.294  10.176  -6.530  1.00  0.00     0.025 C 
ATOM     18  C   UNL     1      12.057  11.543  -6.322  1.00  0.00     0.023 C 
ATOM     19  C   UNL     1      11.885  12.558  -7.477  1.00  0.00     0.063 C 
ATOM     20  C   UNL     1      12.941  13.691  -7.652  1.00  0.00     0.192 C 
ATOM     21  C   UNL     1      12.545  14.679  -8.829  1.00  0.00     0.101 C 
ATOM     22  H   UNL     1      14.515  12.462  -7.066  1.00  0.00     0.348 HD
ENDROOT
BRANCH  17  23
ATOM     23  C   UNL     1      12.091   9.058  -5.800  1.00  0.00     0.017 C 
BRANCH  23  24
ATOM     24  C   UNL     1      13.611   9.003  -6.029  1.00  0.00     0.036 C 
BRANCH  24  25
ATOM     25  C   UNL     1      14.218   7.621  -5.998  1.00  0.00    -0.048 A 
ATOM     26  C   UNL     1      14.763   7.099  -4.815  1.00  0.00     0.004 A 
ATOM     27  C   UNL     1      14.281   6.850  -7.167  1.00  0.00     0.004 A 
ATOM     28  C   UNL     1      15.336   5.826  -4.800  1.00  0.00     0.000 A 
ATOM     29  C   UNL     1      14.852   5.576  -7.149  1.00  0.00     0.000 A 
ATOM     30  C   UNL     1      15.376   5.064  -5.964  1.00  0.00     0.000 A 
ENDBRANCH  24  25
ENDBRANCH  23  24
ENDBRANCH  17  23
BRANCH  10  31
ATOM     31  O   UNL     1       9.785  11.906 -12.991  1.00  0.00    -0.504 OA
ATOM     32  H   UNL     1       8.849  11.924 -12.717  1.00  0.00     0.293 HD
ENDBRANCH  10  31
TORSDOF 4
ENDMDL
