MODEL 1
REMARK VINA RESULT:     1.751      0.000      0.000
REMARK INTER + INTRA:           1.938
REMARK INTER:                   2.365
REMARK INTRA:                  -0.427
REMARK UNBOUND:                -0.427
REMARK SMILES COc1cccc(NC(=O)NNc2nc3ccccc3c(=O)n2-c2cccc(OC(C)C)c2)c1
REMARK SMILES IDX 12 1 13 2 14 3 15 4 16 5 17 6 18 7 19 8 20 9 21 10 22 11
REMARK SMILES IDX 23 12 11 14 8 15 9 16 10 17 7 20 3 21 4 22 34 23 5 24 6 25
REMARK SMILES IDX 2 26 1 27 24 28 25 29 33 30 26 31 28 32 27 33 29 34 30 35
REMARK SMILES IDX 31 36 32 37
REMARK H PARENT 12 13 8 18 11 19
ROOT
ATOM      1  N   UNL     1      12.436   9.427  -8.788  1.00  0.00    -0.265 N 
ATOM      2  C   UNL     1      11.937  10.167  -7.725  1.00  0.00     0.230 C 
ATOM      3  N   UNL     1      11.348   9.497  -6.764  1.00  0.00    -0.213 NA
ATOM      4  C   UNL     1      10.734  10.187  -5.718  1.00  0.00     0.080 A 
ATOM      5  C   UNL     1      10.137   9.453  -4.689  1.00  0.00     0.029 A 
ATOM      6  C   UNL     1       9.486  10.100  -3.636  1.00  0.00     0.002 A 
ATOM      7  C   UNL     1       9.423  11.492  -3.605  1.00  0.00     0.001 A 
ATOM      8  C   UNL     1      10.014  12.233  -4.627  1.00  0.00     0.016 A 
ATOM      9  C   UNL     1      10.666  11.573  -5.678  1.00  0.00     0.066 A 
ATOM     10  C   UNL     1      11.324  12.327  -6.758  1.00  0.00     0.267 C 
ATOM     11  O   UNL     1      11.253  13.555  -6.721  1.00  0.00    -0.268 OA
ATOM     12  N   UNL     1      12.008  11.570  -7.720  1.00  0.00    -0.245 N 
ATOM     13  H   UNL     1      13.120   9.854  -9.411  1.00  0.00     0.191 HD
ENDROOT
BRANCH   1  14
ATOM     14  N   UNL     1      12.754   8.077  -8.479  1.00  0.00    -0.249 N 
ATOM     15  N   UNL     1      13.979   6.603  -7.237  1.00  0.00    -0.306 N 
ATOM     16  C   UNL     1      13.857   7.913  -7.645  1.00  0.00     0.337 C 
ATOM     17  O   UNL     1      14.598   8.852  -7.369  1.00  0.00    -0.247 OA
ATOM     18  H   UNL     1      13.372   5.945  -7.705  1.00  0.00     0.171 HD
ATOM     19  H   UNL     1      11.912   7.563  -8.216  1.00  0.00     0.193 HD
BRANCH  15  20
ATOM     20  C   UNL     1      14.935   6.060  -6.357  1.00  0.00     0.046 A 
ATOM     21  C   UNL     1      16.797   4.508  -6.077  1.00  0.00     0.120 A 
ATOM     22  C   UNL     1      16.895   4.870  -4.736  1.00  0.00     0.046 A 
ATOM     23  C   UNL     1      15.817   5.103  -6.878  1.00  0.00     0.072 A 
ATOM     24  C   UNL     1      16.018   5.818  -4.205  1.00  0.00     0.006 A 
ATOM     25  C   UNL     1      15.042   6.410  -5.012  1.00  0.00     0.026 A 
BRANCH  21  26
ATOM     26  O   UNL     1      17.586   3.597  -6.724  1.00  0.00    -0.497 OA
ATOM     27  C   UNL     1      17.471   3.538  -8.141  1.00  0.00     0.278 C 
ENDBRANCH  21  26
ENDBRANCH  15  20
ENDBRANCH   1  14
BRANCH  12  28
ATOM     28  C   UNL     1      12.799  12.282  -8.685  1.00  0.00     0.056 A 
ATOM     29  C   UNL     1      14.198  12.173  -8.671  1.00  0.00     0.027 A 
ATOM     30  C   UNL     1      12.193  13.129  -9.627  1.00  0.00     0.073 A 
ATOM     31  C   UNL     1      14.969  12.860  -9.607  1.00  0.00     0.006 A 
ATOM     32  C   UNL     1      12.961  13.826 -10.561  1.00  0.00     0.121 A 
ATOM     33  C   UNL     1      14.350  13.677 -10.550  1.00  0.00     0.046 A 
BRANCH  32  34
ATOM     34  O   UNL     1      12.497  14.672 -11.529  1.00  0.00    -0.491 OA
BRANCH  34  35
ATOM     35  C   UNL     1      11.962  14.131 -12.742  1.00  0.00     0.167 C 
ATOM     36  C   UNL     1      12.689  14.833 -13.887  1.00  0.00     0.052 C 
ATOM     37  C   UNL     1      10.465  14.410 -12.832  1.00  0.00     0.052 C 
ENDBRANCH  34  35
ENDBRANCH  32  34
ENDBRANCH  12  28
TORSDOF 6
ENDMDL
MODEL 2
REMARK VINA RESULT:     3.362      2.034      8.419
REMARK INTER + INTRA:           4.114
REMARK INTER:                   2.353
REMARK INTRA:                   1.761
REMARK UNBOUND:                -0.427
REMARK SMILES COc1cccc(NC(=O)NNc2nc3ccccc3c(=O)n2-c2cccc(OC(C)C)c2)c1
REMARK SMILES IDX 12 1 13 2 14 3 15 4 16 5 17 6 18 7 19 8 20 9 21 10 22 11
REMARK SMILES IDX 23 12 11 14 8 15 9 16 10 17 7 20 3 21 4 22 34 23 5 24 6 25
REMARK SMILES IDX 2 26 1 27 24 28 25 29 33 30 26 31 28 32 27 33 29 34 30 35
REMARK SMILES IDX 31 36 32 37
REMARK H PARENT 12 13 8 18 11 19
ROOT
ATOM      1  N   UNL     1      14.728  11.812  -7.551  1.00  0.00    -0.265 N 
ATOM      2  C   UNL     1      13.522  11.194  -7.249  1.00  0.00     0.230 C 
ATOM      3  N   UNL     1      12.455  11.957  -7.228  1.00  0.00    -0.213 NA
ATOM      4  C   UNL     1      11.231  11.420  -6.831  1.00  0.00     0.080 A 
ATOM      5  C   UNL     1      10.101  12.244  -6.844  1.00  0.00     0.029 A 
ATOM      6  C   UNL     1       8.859  11.759  -6.428  1.00  0.00     0.002 A 
ATOM      7  C   UNL     1       8.737  10.441  -5.990  1.00  0.00     0.001 A 
ATOM      8  C   UNL     1       9.857   9.612  -5.973  1.00  0.00     0.016 A 
ATOM      9  C   UNL     1      11.099  10.109  -6.394  1.00  0.00     0.066 A 
ATOM     10  C   UNL     1      12.294   9.252  -6.413  1.00  0.00     0.267 C 
ATOM     11  O   UNL     1      12.172   8.093  -6.017  1.00  0.00    -0.268 OA
ATOM     12  N   UNL     1      13.468   9.829  -6.920  1.00  0.00    -0.245 N 
ATOM     13  H   UNL     1      15.520  11.239  -7.839  1.00  0.00     0.191 HD
ENDROOT
BRANCH   1  14
ATOM     14  N   UNL     1      14.612  13.002  -8.320  1.00  0.00    -0.249 N 
ATOM     15  N   UNL     1      13.682  14.081 -10.104  1.00  0.00    -0.306 N 
ATOM     16  C   UNL     1      13.919  12.857  -9.519  1.00  0.00     0.337 C 
ATOM     17  O   UNL     1      13.612  11.752  -9.953  1.00  0.00    -0.247 OA
ATOM     18  H   UNL     1      14.160  14.864  -9.681  1.00  0.00     0.171 HD
ATOM     19  H   UNL     1      14.328  13.783  -7.728  1.00  0.00     0.193 HD
BRANCH  15  20
ATOM     20  C   UNL     1      12.973  14.346 -11.292  1.00  0.00     0.046 A 
ATOM     21  C   UNL     1      13.061  14.504 -13.726  1.00  0.00     0.120 A 
ATOM     22  C   UNL     1      11.713  14.852 -13.750  1.00  0.00     0.046 A 
ATOM     23  C   UNL     1      13.683  14.255 -12.498  1.00  0.00     0.072 A 
ATOM     24  C   UNL     1      10.997  14.950 -12.555  1.00  0.00     0.006 A 
ATOM     25  C   UNL     1      11.625  14.699 -11.331  1.00  0.00     0.026 A 
BRANCH  21  26
ATOM     26  O   UNL     1      13.878  14.372 -14.815  1.00  0.00    -0.497 OA
ATOM     27  C   UNL     1      13.518  15.104 -15.981  1.00  0.00     0.278 C 
ENDBRANCH  21  26
ENDBRANCH  15  20
ENDBRANCH   1  14
BRANCH  12  28
ATOM     28  C   UNL     1      14.602   8.969  -7.110  1.00  0.00     0.056 A 
ATOM     29  C   UNL     1      15.697   9.401  -7.875  1.00  0.00     0.027 A 
ATOM     30  C   UNL     1      14.619   7.671  -6.573  1.00  0.00     0.073 A 
ATOM     31  C   UNL     1      16.801   8.571  -8.059  1.00  0.00     0.006 A 
ATOM     32  C   UNL     1      15.718   6.833  -6.761  1.00  0.00     0.121 A 
ATOM     33  C   UNL     1      16.810   7.296  -7.499  1.00  0.00     0.046 A 
BRANCH  32  34
ATOM     34  O   UNL     1      15.861   5.558  -6.289  1.00  0.00    -0.491 OA
BRANCH  34  35
ATOM     35  C   UNL     1      16.425   4.551  -7.137  1.00  0.00     0.167 C 
ATOM     36  C   UNL     1      15.261   3.934  -7.910  1.00  0.00     0.052 C 
ATOM     37  C   UNL     1      17.117   3.480  -6.299  1.00  0.00     0.052 C 
ENDBRANCH  34  35
ENDBRANCH  32  34
ENDBRANCH  12  28
TORSDOF 6
ENDMDL
