MODEL 1
REMARK VINA RESULT:    -4.095      0.000      0.000
REMARK INTER + INTRA:          -6.653
REMARK INTER:                  -5.531
REMARK INTRA:                  -1.122
REMARK UNBOUND:                -1.122
REMARK SMILES O=S(=O)(c1ccccc1)N1CC(C[NH+]2CCC(c3ccccc3)CC2)C(c2ccccc2)C1
REMARK SMILES IDX 10 1 11 2 12 3 26 4 33 5 2 6 1 7 3 8 4 9 5 10 9 11 6 12 8 13
REMARK SMILES IDX 7 14 13 15 14 16 15 17 25 18 16 19 24 20 17 21 18 23 19 24
REMARK SMILES IDX 23 25 20 26 22 27 21 28 27 29 28 30 32 31 29 32 31 33 30 34
REMARK H PARENT 14 22
ROOT
ATOM      1  N   UNL     1      11.403  13.586 -10.818  1.00  0.00    -0.197 NA
ATOM      2  C   UNL     1      12.568  13.943 -10.003  1.00  0.00     0.112 C 
ATOM      3  C   UNL     1      12.772  12.699  -9.118  1.00  0.00     0.068 C 
ATOM      4  C   UNL     1      11.428  11.916  -9.212  1.00  0.00     0.044 C 
ATOM      5  C   UNL     1      10.465  12.864  -9.945  1.00  0.00     0.111 C 
ENDROOT
BRANCH   1   6
ATOM      6  S   UNL     1      10.816  14.676 -11.963  1.00  0.00     0.243 S 
ATOM      7  O   UNL     1       9.626  14.073 -12.524  1.00  0.00    -0.207 OA
ATOM      8  O   UNL     1      10.776  15.976 -11.331  1.00  0.00    -0.207 OA
BRANCH   6   9
ATOM      9  C   UNL     1      12.071  14.700 -13.217  1.00  0.00     0.082 A 
ATOM     10  C   UNL     1      11.784  15.245 -14.473  1.00  0.00     0.022 A 
ATOM     11  C   UNL     1      13.316  14.115 -12.962  1.00  0.00     0.022 A 
ATOM     12  C   UNL     1      12.765  15.241 -15.464  1.00  0.00     0.001 A 
ATOM     13  C   UNL     1      14.291  14.114 -13.959  1.00  0.00     0.001 A 
ATOM     14  C   UNL     1      14.017  14.681 -15.205  1.00  0.00     0.000 A 
ENDBRANCH   6   9
ENDBRANCH   1   6
BRANCH   3  15
ATOM     15  C   UNL     1      13.956  11.867  -9.629  1.00  0.00     0.267 C 
BRANCH  15  16
ATOM     16  N   UNL     1      15.044  11.734  -8.568  1.00  0.00    -0.335 N 
ATOM     17  C   UNL     1      14.482  11.617  -7.171  1.00  0.00     0.262 C 
ATOM     18  C   UNL     1      16.092  10.679  -8.878  1.00  0.00     0.262 C 
ATOM     19  C   UNL     1      13.794  10.273  -6.974  1.00  0.00     0.070 C 
ATOM     20  C   UNL     1      16.023   9.496  -7.917  1.00  0.00     0.070 C 
ATOM     21  C   UNL     1      14.574   9.104  -7.606  1.00  0.00     0.030 C 
ATOM     22  H   UNL     1      15.558  12.626  -8.560  1.00  0.00     0.348 HD
BRANCH  21  23
ATOM     23  C   UNL     1      14.493   7.848  -6.764  1.00  0.00    -0.044 A 
ATOM     24  C   UNL     1      14.618   6.592  -7.376  1.00  0.00     0.004 A 
ATOM     25  C   UNL     1      14.296   7.899  -5.375  1.00  0.00     0.004 A 
ATOM     26  C   UNL     1      14.559   5.420  -6.619  1.00  0.00     0.000 A 
ATOM     27  C   UNL     1      14.234   6.724  -4.621  1.00  0.00     0.000 A 
ATOM     28  C   UNL     1      14.367   5.486  -5.242  1.00  0.00     0.000 A 
ENDBRANCH  21  23
ENDBRANCH  15  16
ENDBRANCH   3  15
BRANCH   4  29
ATOM     29  C   UNL     1      10.931  11.393  -7.888  1.00  0.00    -0.043 A 
ATOM     30  C   UNL     1      10.488  10.064  -7.789  1.00  0.00     0.004 A 
ATOM     31  C   UNL     1      10.903  12.197  -6.739  1.00  0.00     0.004 A 
ATOM     32  C   UNL     1      10.062   9.546  -6.566  1.00  0.00     0.000 A 
ATOM     33  C   UNL     1      10.477  11.675  -5.516  1.00  0.00     0.000 A 
ATOM     34  C   UNL     1      10.063  10.349  -5.429  1.00  0.00     0.000 A 
ENDBRANCH   4  29
TORSDOF 6
ENDMDL
MODEL 2
REMARK VINA RESULT:    -3.963      1.362      1.881
REMARK INTER + INTRA:          -6.475
REMARK INTER:                  -7.408
REMARK INTRA:                   0.932
REMARK UNBOUND:                -1.122
REMARK SMILES O=S(=O)(c1ccccc1)N1CC(C[NH+]2CCC(c3ccccc3)CC2)C(c2ccccc2)C1
REMARK SMILES IDX 10 1 11 2 12 3 26 4 33 5 2 6 1 7 3 8 4 9 5 10 9 11 6 12 8 13
REMARK SMILES IDX 7 14 13 15 14 16 15 17 25 18 16 19 24 20 17 21 18 23 19 24
REMARK SMILES IDX 23 25 20 26 22 27 21 28 27 29 28 30 32 31 29 32 31 33 30 34
REMARK H PARENT 14 22
ROOT
ATOM      1  N   UNL     1      11.222  12.281 -10.089  1.00  0.00    -0.197 NA
ATOM      2  C   UNL     1      11.943  13.286  -9.303  1.00  0.00     0.112 C 
ATOM      3  C   UNL     1      12.298  12.531  -8.008  1.00  0.00     0.068 C 
ATOM      4  C   UNL     1      11.362  11.286  -8.002  1.00  0.00     0.044 C 
ATOM      5  C   UNL     1      10.376  11.523  -9.156  1.00  0.00     0.111 C 
ENDROOT
BRANCH   1   6
ATOM      6  S   UNL     1      10.640  12.677 -11.622  1.00  0.00     0.243 S 
ATOM      7  O   UNL     1      10.860  11.511 -12.452  1.00  0.00    -0.207 OA
ATOM      8  O   UNL     1       9.319  13.237 -11.444  1.00  0.00    -0.207 OA
BRANCH   6   9
ATOM      9  C   UNL     1      11.726  13.965 -12.175  1.00  0.00     0.082 A 
ATOM     10  C   UNL     1      12.733  13.671 -13.101  1.00  0.00     0.022 A 
ATOM     11  C   UNL     1      11.611  15.249 -11.633  1.00  0.00     0.022 A 
ATOM     12  C   UNL     1      13.601  14.681 -13.516  1.00  0.00     0.001 A 
ATOM     13  C   UNL     1      12.484  16.253 -12.052  1.00  0.00     0.001 A 
ATOM     14  C   UNL     1      13.473  15.970 -12.996  1.00  0.00     0.000 A 
ENDBRANCH   6   9
ENDBRANCH   1   6
BRANCH   3  15
ATOM     15  C   UNL     1      13.780  12.134  -8.010  1.00  0.00     0.267 C 
BRANCH  15  16
ATOM     16  N   UNL     1      14.033  10.923  -8.904  1.00  0.00    -0.335 N 
ATOM     17  C   UNL     1      15.437  10.385  -8.769  1.00  0.00     0.262 C 
ATOM     18  C   UNL     1      12.969   9.843  -8.806  1.00  0.00     0.262 C 
ATOM     19  C   UNL     1      15.636   9.723  -7.412  1.00  0.00     0.070 C 
ATOM     20  C   UNL     1      13.499   8.567  -8.160  1.00  0.00     0.070 C 
ATOM     21  C   UNL     1      14.426   8.874  -6.978  1.00  0.00     0.030 C 
ATOM     22  H   UNL     1      13.983  11.259  -9.875  1.00  0.00     0.348 HD
BRANCH  21  23
ATOM     23  C   UNL     1      14.848   7.618  -6.244  1.00  0.00    -0.044 A 
ATOM     24  C   UNL     1      15.652   6.670  -6.894  1.00  0.00     0.004 A 
ATOM     25  C   UNL     1      14.460   7.370  -4.918  1.00  0.00     0.004 A 
ATOM     26  C   UNL     1      16.065   5.511  -6.234  1.00  0.00     0.000 A 
ATOM     27  C   UNL     1      14.871   6.208  -4.261  1.00  0.00     0.000 A 
ATOM     28  C   UNL     1      15.674   5.280  -4.917  1.00  0.00     0.000 A 
ENDBRANCH  21  23
ENDBRANCH  15  16
ENDBRANCH   3  15
BRANCH   4  29
ATOM     29  C   UNL     1      10.728  11.004  -6.663  1.00  0.00    -0.043 A 
ATOM     30  C   UNL     1      10.259   9.712  -6.376  1.00  0.00     0.004 A 
ATOM     31  C   UNL     1      10.598  11.998  -5.683  1.00  0.00     0.004 A 
ATOM     32  C   UNL     1       9.705   9.417  -5.129  1.00  0.00     0.000 A 
ATOM     33  C   UNL     1      10.045  11.700  -4.436  1.00  0.00     0.000 A 
ATOM     34  C   UNL     1       9.605  10.409  -4.158  1.00  0.00     0.000 A 
ENDBRANCH   4  29
TORSDOF 6
ENDMDL
