MODEL 1
REMARK VINA RESULT:    -7.703      0.000      0.000
REMARK INTER + INTRA:          -9.415
REMARK INTER:                  -9.730
REMARK INTRA:                   0.315
REMARK UNBOUND:                 0.315
REMARK SMILES COc1cc2nc(N3CCN(C(=O)C4=CC5C=CC4CC5)CC3)nc(N)c2cc1OC
REMARK SMILES IDX 3 1 4 2 5 3 6 4 7 5 24 6 25 7 27 8 28 9 29 10 2 11 1 12
REMARK SMILES IDX 30 13 31 14 8 15 9 16 23 17 10 18 22 19 11 20 12 21 13 22
REMARK SMILES IDX 14 23 15 24 19 25 16 26 18 27 20 28 17 29 21 30 26 31
REMARK H PARENT 26 32 26 33
ROOT
ATOM      1  C   UNL     1      15.553   4.652  -7.242  1.00  0.00     0.162 A 
ATOM      2  C   UNL     1      14.934   5.832  -7.670  1.00  0.00     0.079 A 
ATOM      3  C   UNL     1      14.560   6.832  -6.781  1.00  0.00     0.082 A 
ATOM      4  N   UNL     1      13.971   7.932  -7.258  1.00  0.00    -0.213 NA
ATOM      5  C   UNL     1      13.606   8.900  -6.404  1.00  0.00     0.228 A 
ATOM      6  N   UNL     1      13.809   8.809  -5.085  1.00  0.00    -0.195 NA
ATOM      7  C   UNL     1      14.389   7.699  -4.611  1.00  0.00     0.137 A 
ATOM      8  C   UNL     1      14.809   6.647  -5.426  1.00  0.00     0.047 A 
ATOM      9  C   UNL     1      15.447   5.464  -4.973  1.00  0.00     0.064 A 
ATOM     10  C   UNL     1      15.815   4.467  -5.875  1.00  0.00     0.161 A 
ENDROOT
BRANCH   1  11
ATOM     11  O   UNL     1      15.933   3.628  -8.076  1.00  0.00    -0.493 OA
ATOM     12  C   UNL     1      14.929   3.009  -8.863  1.00  0.00     0.278 C 
ENDBRANCH   1  11
BRANCH  10  13
ATOM     13  O   UNL     1      16.425   3.289  -5.529  1.00  0.00    -0.493 OA
ATOM     14  C   UNL     1      17.725   3.038  -6.047  1.00  0.00     0.278 C 
ENDBRANCH  10  13
BRANCH   5  15
ATOM     15  N   UNL     1      13.010  10.039  -6.917  1.00  0.00    -0.337 N 
ATOM     16  C   UNL     1      11.545  10.139  -6.893  1.00  0.00     0.141 C 
ATOM     17  C   UNL     1      13.725  10.716  -8.004  1.00  0.00     0.141 C 
ATOM     18  C   UNL     1      10.977  10.414  -8.297  1.00  0.00     0.141 C 
ATOM     19  C   UNL     1      12.940  11.936  -8.513  1.00  0.00     0.141 C 
ATOM     20  N   UNL     1      11.574  11.589  -8.937  1.00  0.00    -0.335 N 
ATOM     21  C   UNL     1      10.910  12.155 -10.008  1.00  0.00     0.250 C 
ATOM     22  O   UNL     1       9.891  11.678 -10.502  1.00  0.00    -0.269 OA
BRANCH  21  23
ATOM     23  C   UNL     1      11.478  13.385 -10.590  1.00  0.00     0.021 C 
ATOM     24  C   UNL     1      11.877  14.466  -9.883  1.00  0.00    -0.010 C 
ATOM     25  C   UNL     1      11.536  13.555 -12.102  1.00  0.00     0.047 C 
ATOM     26  C   UNL     1      12.337  15.625 -10.760  1.00  0.00     0.034 C 
ATOM     27  C   UNL     1      12.954  14.009 -12.449  1.00  0.00    -0.022 C 
ATOM     28  C   UNL     1      10.619  14.768 -12.429  1.00  0.00     0.013 C 
ATOM     29  C   UNL     1      13.372  15.082 -11.745  1.00  0.00    -0.023 C 
ATOM     30  C   UNL     1      11.103  16.018 -11.619  1.00  0.00     0.013 C 
ENDBRANCH  21  23
ENDBRANCH   5  15
BRANCH   7  31
ATOM     31  N   UNL     1      14.556   7.667  -3.220  1.00  0.00    -0.383 N 
ATOM     32  H   UNL     1      13.677   7.841  -2.745  1.00  0.00     0.158 HD
ATOM     33  H   UNL     1      15.244   8.382  -2.993  1.00  0.00     0.158 HD
ENDBRANCH   7  31
TORSDOF 5
ENDMDL
