MODEL 1
REMARK VINA RESULT:    -2.779      0.000      0.000
REMARK INTER + INTRA:          -2.796
REMARK INTER:                  -4.079
REMARK INTRA:                   1.283
REMARK UNBOUND:                 1.283
REMARK SMILES N#Cc1cc(F)ccc1C1CC[NH+](CCCNC(=O)C2=C(C(F)(F)F)NC(=O)NC2c2ccc(F)c(F)c2)CC1
REMARK SMILES IDX 15 1 14 2 13 3 10 4 11 5 40 6 12 7 39 8 9 10 1 11 2 12 3 13
REMARK SMILES IDX 4 14 5 15 8 16 7 17 6 18 16 19 17 20 18 21 19 22 20 24 21 25
REMARK SMILES IDX 30 26 26 27 29 28 27 29 28 30 22 33 23 34 24 35 25 36 31 37
REMARK SMILES IDX 32 38 38 39 33 40 36 41 34 42 37 43 35 44
REMARK H PARENT 13 9 17 23 26 31 29 32
ROOT
ATOM      1  C   UNL     1      14.770  12.285  -7.960  1.00  0.00     0.083 C 
ENDROOT
BRANCH   1   2
ATOM      2  C   UNL     1      13.686  11.313  -7.455  1.00  0.00     0.264 C 
BRANCH   2   3
ATOM      3  N   UNL     1      14.324  10.086  -6.800  1.00  0.00    -0.335 N 
ATOM      4  C   UNL     1      13.953   7.093  -6.926  1.00  0.00     0.032 C 
ATOM      5  C   UNL     1      13.839   7.940  -5.635  1.00  0.00     0.070 C 
ATOM      6  C   UNL     1      14.262   7.981  -8.156  1.00  0.00     0.070 C 
ATOM      7  C   UNL     1      13.323   9.339  -5.927  1.00  0.00     0.262 C 
ATOM      8  C   UNL     1      15.071   9.213  -7.788  1.00  0.00     0.262 C 
ATOM      9  H   UNL     1      15.026  10.442  -6.129  1.00  0.00     0.348 HD
BRANCH   4  10
ATOM     10  C   UNL     1      14.909   5.911  -6.688  1.00  0.00    -0.026 A 
ATOM     11  N   UNL     1      14.820   7.197  -3.393  1.00  0.00    -0.192 NA
ATOM     12  C   UNL     1      15.134   6.499  -4.267  1.00  0.00     0.100 C 
ATOM     13  C   UNL     1      15.471   5.676  -5.398  1.00  0.00     0.058 A 
ATOM     14  C   UNL     1      16.373   4.623  -5.192  1.00  0.00     0.059 A 
ATOM     15  C   UNL     1      16.724   3.801  -6.255  1.00  0.00     0.124 A 
ATOM     16  C   UNL     1      15.289   5.048  -7.739  1.00  0.00     0.008 A 
ATOM     17  C   UNL     1      16.189   4.001  -7.522  1.00  0.00     0.039 A 
ATOM     18  F   UNL     1      17.603   2.810  -6.058  1.00  0.00    -0.207 F 
ENDBRANCH   4  10
ENDBRANCH   2   3
ENDBRANCH   1   2
BRANCH   1  19
ATOM     19  C   UNL     1      14.261  13.686  -8.327  1.00  0.00     0.122 C 
BRANCH  19  20
ATOM     20  N   UNL     1      13.102  13.647  -9.198  1.00  0.00    -0.352 N 
ATOM     21  C   UNL     1      13.154  13.707 -10.570  1.00  0.00     0.251 C 
ATOM     22  O   UNL     1      14.183  13.850 -11.227  1.00  0.00    -0.270 OA
ATOM     23  H   UNL     1      12.192  13.547  -8.739  1.00  0.00     0.163 HD
BRANCH  21  24
ATOM     24  C   UNL     1      11.822  13.706 -11.221  1.00  0.00     0.072 C 
ATOM     25  C   UNL     1      11.281  14.879 -11.604  1.00  0.00     0.135 C 
ATOM     26  C   UNL     1      11.202  12.372 -11.532  1.00  0.00     0.152 C 
ATOM     27  N   UNL     1      10.070  14.835 -12.279  1.00  0.00    -0.303 N 
ATOM     28  N   UNL     1       9.976  12.525 -12.288  1.00  0.00    -0.327 N 
ATOM     29  C   UNL     1       9.402  13.703 -12.635  1.00  0.00     0.320 C 
ATOM     30  O   UNL     1       8.330  13.737 -13.230  1.00  0.00    -0.248 OA
ATOM     31  H   UNL     1       9.614  15.696 -12.577  1.00  0.00     0.171 HD
ATOM     32  H   UNL     1       9.449  11.695 -12.550  1.00  0.00     0.166 HD
BRANCH  25  33
ATOM     33  C   UNL     1      11.886  16.246 -11.357  1.00  0.00     0.431 C 
ATOM     34  F   UNL     1      11.100  17.239 -11.839  1.00  0.00    -0.165 F 
ATOM     35  F   UNL     1      13.115  16.413 -11.922  1.00  0.00    -0.165 F 
ATOM     36  F   UNL     1      12.048  16.477 -10.024  1.00  0.00    -0.165 F 
ENDBRANCH  25  33
BRANCH  26  37
ATOM     37  C   UNL     1      10.929  11.538 -10.283  1.00  0.00    -0.018 A 
ATOM     38  C   UNL     1      11.331  10.190 -10.230  1.00  0.00     0.009 A 
ATOM     39  C   UNL     1      10.300  12.099  -9.151  1.00  0.00     0.048 A 
ATOM     40  C   UNL     1      11.142   9.430  -9.067  1.00  0.00     0.043 A 
ATOM     41  C   UNL     1      10.124  11.335  -7.999  1.00  0.00     0.159 A 
ATOM     42  C   UNL     1      10.548  10.015  -7.953  1.00  0.00     0.158 A 
ATOM     43  F   UNL     1       9.627  11.937  -6.904  1.00  0.00    -0.204 F 
ATOM     44  F   UNL     1      10.384   9.282  -6.843  1.00  0.00    -0.204 F 
ENDBRANCH  26  37
ENDBRANCH  21  24
ENDBRANCH  19  20
ENDBRANCH   1  19
TORSDOF 8
ENDMDL
MODEL 2
REMARK VINA RESULT:    -0.477      2.505      3.819
REMARK INTER + INTRA:           0.583
REMARK INTER:                  -0.592
REMARK INTRA:                   1.175
REMARK UNBOUND:                 1.283
REMARK SMILES N#Cc1cc(F)ccc1C1CC[NH+](CCCNC(=O)C2=C(C(F)(F)F)NC(=O)NC2c2ccc(F)c(F)c2)CC1
REMARK SMILES IDX 15 1 14 2 13 3 10 4 11 5 40 6 12 7 39 8 9 10 1 11 2 12 3 13
REMARK SMILES IDX 4 14 5 15 8 16 7 17 6 18 16 19 17 20 18 21 19 22 20 24 21 25
REMARK SMILES IDX 30 26 26 27 29 28 27 29 28 30 22 33 23 34 24 35 25 36 31 37
REMARK SMILES IDX 32 38 38 39 33 40 36 41 34 42 37 43 35 44
REMARK H PARENT 13 9 17 23 26 31 29 32
ROOT
ATOM      1  C   UNL     1      10.105  10.136  -6.117  1.00  0.00     0.083 C 
ENDROOT
BRANCH   1   2
ATOM      2  C   UNL     1      11.641  10.183  -6.226  1.00  0.00     0.264 C 
BRANCH   2   3
ATOM      3  N   UNL     1      12.209   8.782  -6.465  1.00  0.00    -0.335 N 
ATOM      4  C   UNL     1      14.948   7.551  -6.770  1.00  0.00     0.032 C 
ATOM      5  C   UNL     1      13.822   7.465  -7.828  1.00  0.00     0.070 C 
ATOM      6  C   UNL     1      14.498   8.371  -5.536  1.00  0.00     0.070 C 
ATOM      7  C   UNL     1      12.933   8.698  -7.803  1.00  0.00     0.262 C 
ATOM      8  C   UNL     1      13.004   8.261  -5.285  1.00  0.00     0.262 C 
ATOM      9  H   UNL     1      11.397   8.151  -6.578  1.00  0.00     0.348 HD
BRANCH   4  10
ATOM     10  C   UNL     1      15.498   6.143  -6.482  1.00  0.00    -0.026 A 
ATOM     11  N   UNL     1      14.954   7.197  -3.149  1.00  0.00    -0.192 NA
ATOM     12  C   UNL     1      15.283   6.497  -4.015  1.00  0.00     0.100 C 
ATOM     13  C   UNL     1      15.663   5.686  -5.141  1.00  0.00     0.058 A 
ATOM     14  C   UNL     1      16.202   4.418  -4.879  1.00  0.00     0.059 A 
ATOM     15  C   UNL     1      16.580   3.601  -5.936  1.00  0.00     0.124 A 
ATOM     16  C   UNL     1      15.891   5.278  -7.526  1.00  0.00     0.008 A 
ATOM     17  C   UNL     1      16.426   4.016  -7.253  1.00  0.00     0.039 A 
ATOM     18  F   UNL     1      17.115   2.400  -5.680  1.00  0.00    -0.207 F 
ENDBRANCH   4  10
ENDBRANCH   2   3
ENDBRANCH   1   2
BRANCH   1  19
ATOM     19  C   UNL     1       9.353  10.530  -7.396  1.00  0.00     0.122 C 
BRANCH  19  20
ATOM     20  N   UNL     1      10.059  11.533  -8.170  1.00  0.00    -0.352 N 
ATOM     21  C   UNL     1      10.775  11.274  -9.314  1.00  0.00     0.251 C 
ATOM     22  O   UNL     1      10.948  10.157  -9.796  1.00  0.00    -0.270 OA
ATOM     23  H   UNL     1       9.989  12.497  -7.835  1.00  0.00     0.163 HD
BRANCH  21  24
ATOM     24  C   UNL     1      11.449  12.467  -9.883  1.00  0.00     0.072 C 
ATOM     25  C   UNL     1      11.054  12.928 -11.085  1.00  0.00     0.135 C 
ATOM     26  C   UNL     1      12.458  13.172  -9.020  1.00  0.00     0.152 C 
ATOM     27  N   UNL     1      11.651  14.090 -11.552  1.00  0.00    -0.303 N 
ATOM     28  N   UNL     1      12.927  14.390  -9.647  1.00  0.00    -0.327 N 
ATOM     29  C   UNL     1      12.569  14.835 -10.877  1.00  0.00     0.320 C 
ATOM     30  O   UNL     1      13.061  15.854 -11.352  1.00  0.00    -0.248 OA
ATOM     31  H   UNL     1      11.397  14.471 -12.461  1.00  0.00     0.171 HD
ATOM     32  H   UNL     1      13.626  14.955  -9.171  1.00  0.00     0.166 HD
BRANCH  25  33
ATOM     33  C   UNL     1      10.010  12.282 -11.973  1.00  0.00     0.431 C 
ATOM     34  F   UNL     1       8.911  11.912 -11.271  1.00  0.00    -0.165 F 
ATOM     35  F   UNL     1      10.452  11.167 -12.619  1.00  0.00    -0.165 F 
ATOM     36  F   UNL     1       9.592  13.142 -12.943  1.00  0.00    -0.165 F 
ENDBRANCH  25  33
BRANCH  26  37
ATOM     37  C   UNL     1      13.652  12.292  -8.662  1.00  0.00    -0.018 A 
ATOM     38  C   UNL     1      14.221  12.359  -7.376  1.00  0.00     0.009 A 
ATOM     39  C   UNL     1      14.192  11.377  -9.591  1.00  0.00     0.048 A 
ATOM     40  C   UNL     1      15.278  11.512  -7.014  1.00  0.00     0.043 A 
ATOM     41  C   UNL     1      15.240  10.536  -9.217  1.00  0.00     0.159 A 
ATOM     42  C   UNL     1      15.773  10.597  -7.938  1.00  0.00     0.158 A 
ATOM     43  F   UNL     1      15.650   9.601 -10.091  1.00  0.00    -0.204 F 
ATOM     44  F   UNL     1      16.776   9.784  -7.576  1.00  0.00    -0.204 F 
ENDBRANCH  26  37
ENDBRANCH  21  24
ENDBRANCH  19  20
ENDBRANCH   1  19
TORSDOF 8
ENDMDL
