MODEL 1
REMARK VINA RESULT:    -1.673      0.000      0.000
REMARK INTER + INTRA:          -2.586
REMARK INTER:                  -2.162
REMARK INTRA:                  -0.425
REMARK UNBOUND:                -0.425
REMARK SMILES C(#Cc1ncnc2c1ncn2Cc1ccccc1)c1ncnc2c1ncn2Cc1ccccc1
REMARK SMILES IDX 1 1 19 2 20 3 21 4 22 5 23 6 24 7 25 8 26 9 27 10 2 11 3 12
REMARK SMILES IDX 4 13 8 14 5 15 7 16 9 17 6 18 11 19 10 20 12 21 13 22 14 23
REMARK SMILES IDX 18 24 15 25 17 26 16 27 28 28 29 29 30 30 34 31 31 32 33 33
REMARK SMILES IDX 32 34
REMARK H PARENT
ROOT
ATOM      1  C   UNL     1      11.844  11.728  -7.616  1.00  0.00    -0.037 C 
ATOM      2  C   UNL     1      11.889  10.593  -6.762  1.00  0.00     0.144 A 
ATOM      3  N   UNL     1      10.764  10.277  -6.075  1.00  0.00    -0.225 NA
ATOM      4  C   UNL     1      10.819   9.194  -5.275  1.00  0.00     0.225 A 
ATOM      5  N   UNL     1      11.860   8.363  -5.064  1.00  0.00    -0.217 NA
ATOM      6  C   UNL     1      12.938   8.738  -5.780  1.00  0.00     0.164 A 
ATOM      7  C   UNL     1      13.043   9.825  -6.637  1.00  0.00     0.142 A 
ATOM      8  N   UNL     1      14.310   9.895  -7.181  1.00  0.00    -0.232 NA
ATOM      9  C   UNL     1      14.954   8.863  -6.676  1.00  0.00     0.202 A 
ATOM     10  N   UNL     1      14.164   8.134  -5.827  1.00  0.00    -0.311 N 
ENDROOT
BRANCH   1  11
ATOM     11  C   UNL     1      11.809  12.682  -8.346  1.00  0.00    -0.037 C 
ATOM     12  C   UNL     1      11.768  13.801  -9.219  1.00  0.00     0.144 A 
ATOM     13  N   UNL     1      11.940  15.030  -8.677  1.00  0.00    -0.225 NA
ATOM     14  C   UNL     1      11.558  13.646 -10.585  1.00  0.00     0.142 A 
ATOM     15  C   UNL     1      11.897  16.082  -9.517  1.00  0.00     0.225 A 
ATOM     16  C   UNL     1      11.545  14.825 -11.318  1.00  0.00     0.164 A 
ATOM     17  N   UNL     1      11.345  12.561 -11.410  1.00  0.00    -0.232 NA
ATOM     18  N   UNL     1      11.703  16.077 -10.852  1.00  0.00    -0.217 NA
ATOM     19  N   UNL     1      11.340  14.431 -12.612  1.00  0.00    -0.311 N 
ATOM     20  C   UNL     1      11.224  13.068 -12.618  1.00  0.00     0.202 A 
BRANCH  19  21
ATOM     21  C   UNL     1      11.218  15.299 -13.766  1.00  0.00     0.160 C 
BRANCH  21  22
ATOM     22  C   UNL     1      12.376  15.121 -14.714  1.00  0.00    -0.028 A 
ATOM     23  C   UNL     1      12.361  15.714 -15.986  1.00  0.00     0.005 A 
ATOM     24  C   UNL     1      13.480  14.336 -14.344  1.00  0.00     0.005 A 
ATOM     25  C   UNL     1      13.431  15.532 -16.863  1.00  0.00     0.000 A 
ATOM     26  C   UNL     1      14.549  14.157 -15.224  1.00  0.00     0.000 A 
ATOM     27  C   UNL     1      14.524  14.756 -16.482  1.00  0.00     0.000 A 
ENDBRANCH  21  22
ENDBRANCH  19  21
ENDBRANCH   1  11
BRANCH  10  28
ATOM     28  C   UNL     1      14.571   6.961  -5.079  1.00  0.00     0.160 C 
BRANCH  28  29
ATOM     29  C   UNL     1      15.166   5.914  -5.986  1.00  0.00    -0.028 A 
ATOM     30  C   UNL     1      16.493   5.490  -5.804  1.00  0.00     0.005 A 
ATOM     31  C   UNL     1      14.403   5.331  -7.008  1.00  0.00     0.005 A 
ATOM     32  C   UNL     1      17.044   4.510  -6.631  1.00  0.00     0.000 A 
ATOM     33  C   UNL     1      14.958   4.350  -7.834  1.00  0.00     0.000 A 
ATOM     34  C   UNL     1      16.277   3.942  -7.646  1.00  0.00     0.000 A 
ENDBRANCH  28  29
ENDBRANCH  10  28
TORSDOF 5
ENDMDL
MODEL 2
REMARK VINA RESULT:    -1.657      0.046     10.183
REMARK INTER + INTRA:          -2.566
REMARK INTER:                  -2.105
REMARK INTRA:                  -0.461
REMARK UNBOUND:                -0.425
REMARK SMILES C(#Cc1ncnc2c1ncn2Cc1ccccc1)c1ncnc2c1ncn2Cc1ccccc1
REMARK SMILES IDX 1 1 19 2 20 3 21 4 22 5 23 6 24 7 25 8 26 9 27 10 2 11 3 12
REMARK SMILES IDX 4 13 8 14 5 15 7 16 9 17 6 18 11 19 10 20 12 21 13 22 14 23
REMARK SMILES IDX 18 24 15 25 17 26 16 27 28 28 29 29 30 30 34 31 31 32 33 33
REMARK SMILES IDX 32 34
REMARK H PARENT
ROOT
ATOM      1  C   UNL     1      11.778  12.664  -8.391  1.00  0.00    -0.037 C 
ATOM      2  C   UNL     1      11.744  13.787  -9.260  1.00  0.00     0.144 A 
ATOM      3  N   UNL     1      11.948  15.012  -8.716  1.00  0.00    -0.225 NA
ATOM      4  C   UNL     1      11.921  16.067  -9.554  1.00  0.00     0.225 A 
ATOM      5  N   UNL     1      11.717  16.070 -10.888  1.00  0.00    -0.217 NA
ATOM      6  C   UNL     1      11.525  14.821 -11.355  1.00  0.00     0.164 A 
ATOM      7  C   UNL     1      11.516  13.641 -10.626  1.00  0.00     0.142 A 
ATOM      8  N   UNL     1      11.271  12.560 -11.451  1.00  0.00    -0.232 NA
ATOM      9  C   UNL     1      11.150  13.075 -12.657  1.00  0.00     0.202 A 
ATOM     10  N   UNL     1      11.299  14.437 -12.648  1.00  0.00    -0.311 N 
ENDROOT
BRANCH   1  11
ATOM     11  C   UNL     1      11.815  11.711  -7.661  1.00  0.00    -0.037 C 
ATOM     12  C   UNL     1      11.868  10.580  -6.803  1.00  0.00     0.144 A 
ATOM     13  N   UNL     1      10.755  10.270  -6.098  1.00  0.00    -0.225 NA
ATOM     14  C   UNL     1      13.024   9.814  -6.687  1.00  0.00     0.142 A 
ATOM     15  C   UNL     1      10.822   9.195  -5.289  1.00  0.00     0.225 A 
ATOM     16  C   UNL     1      12.934   8.737  -5.816  1.00  0.00     0.164 A 
ATOM     17  N   UNL     1      14.283   9.880  -7.247  1.00  0.00    -0.232 NA
ATOM     18  N   UNL     1      11.869   8.369  -5.080  1.00  0.00    -0.217 NA
ATOM     19  N   UNL     1      14.161   8.135  -5.874  1.00  0.00    -0.311 N 
ATOM     20  C   UNL     1      14.936   8.855  -6.741  1.00  0.00     0.202 A 
BRANCH  19  21
ATOM     21  C   UNL     1      14.586   6.974  -5.119  1.00  0.00     0.160 C 
BRANCH  21  22
ATOM     22  C   UNL     1      15.177   5.919  -6.018  1.00  0.00    -0.028 A 
ATOM     23  C   UNL     1      14.404   5.321  -7.026  1.00  0.00     0.005 A 
ATOM     24  C   UNL     1      16.505   5.502  -5.845  1.00  0.00     0.005 A 
ATOM     25  C   UNL     1      14.954   4.334  -7.847  1.00  0.00     0.000 A 
ATOM     26  C   UNL     1      17.052   4.516  -6.667  1.00  0.00     0.000 A 
ATOM     27  C   UNL     1      16.276   3.933  -7.668  1.00  0.00     0.000 A 
ENDBRANCH  21  22
ENDBRANCH  19  21
ENDBRANCH   1  11
BRANCH  10  28
ATOM     28  C   UNL     1      11.190  15.313 -13.797  1.00  0.00     0.160 C 
BRANCH  28  29
ATOM     29  C   UNL     1      12.355  15.131 -14.737  1.00  0.00    -0.028 A 
ATOM     30  C   UNL     1      13.469  14.371 -14.345  1.00  0.00     0.005 A 
ATOM     31  C   UNL     1      12.339  15.698 -16.020  1.00  0.00     0.005 A 
ATOM     32  C   UNL     1      14.544  14.187 -15.216  1.00  0.00     0.000 A 
ATOM     33  C   UNL     1      13.417  15.511 -16.889  1.00  0.00     0.000 A 
ATOM     34  C   UNL     1      14.518  14.758 -16.487  1.00  0.00     0.000 A 
ENDBRANCH  28  29
ENDBRANCH  10  28
TORSDOF 5
ENDMDL
MODEL 3
REMARK VINA RESULT:    -0.321      1.077      1.889
REMARK INTER + INTRA:          -0.840
REMARK INTER:                  -0.821
REMARK INTRA:                  -0.018
REMARK UNBOUND:                -0.425
REMARK SMILES C(#Cc1ncnc2c1ncn2Cc1ccccc1)c1ncnc2c1ncn2Cc1ccccc1
REMARK SMILES IDX 1 1 19 2 20 3 21 4 22 5 23 6 24 7 25 8 26 9 27 10 2 11 3 12
REMARK SMILES IDX 4 13 8 14 5 15 7 16 9 17 6 18 11 19 10 20 12 21 13 22 14 23
REMARK SMILES IDX 18 24 15 25 17 26 16 27 28 28 29 29 30 30 34 31 31 32 33 33
REMARK SMILES IDX 32 34
REMARK H PARENT
ROOT
ATOM      1  C   UNL     1      11.488  10.696  -8.327  1.00  0.00    -0.037 C 
ATOM      2  C   UNL     1      11.805   9.916  -7.182  1.00  0.00     0.144 A 
ATOM      3  N   UNL     1      10.986  10.013  -6.107  1.00  0.00    -0.225 NA
ATOM      4  C   UNL     1      11.294   9.262  -5.032  1.00  0.00     0.225 A 
ATOM      5  N   UNL     1      12.326   8.407  -4.877  1.00  0.00    -0.217 NA
ATOM      6  C   UNL     1      13.092   8.362  -5.984  1.00  0.00     0.164 A 
ATOM      7  C   UNL     1      12.913   9.074  -7.162  1.00  0.00     0.142 A 
ATOM      8  N   UNL     1      13.912   8.774  -8.068  1.00  0.00    -0.232 NA
ATOM      9  C   UNL     1      14.670   7.888  -7.458  1.00  0.00     0.202 A 
ATOM     10  N   UNL     1      14.211   7.605  -6.198  1.00  0.00    -0.311 N 
ENDROOT
BRANCH   1  11
ATOM     11  C   UNL     1      11.220  11.346  -9.300  1.00  0.00    -0.037 C 
ATOM     12  C   UNL     1      10.909  12.124 -10.447  1.00  0.00     0.144 A 
ATOM     13  N   UNL     1       9.841  11.752 -11.191  1.00  0.00    -0.225 NA
ATOM     14  C   UNL     1      11.674  13.232 -10.799  1.00  0.00     0.142 A 
ATOM     15  C   UNL     1       9.560  12.499 -12.277  1.00  0.00     0.225 A 
ATOM     16  C   UNL     1      11.255  13.900 -11.941  1.00  0.00     0.164 A 
ATOM     17  N   UNL     1      12.793  13.838 -10.266  1.00  0.00    -0.232 NA
ATOM     18  N   UNL     1      10.212  13.590 -12.732  1.00  0.00    -0.217 NA
ATOM     19  N   UNL     1      12.132  14.941 -12.080  1.00  0.00    -0.311 N 
ATOM     20  C   UNL     1      13.036  14.862 -11.056  1.00  0.00     0.202 A 
BRANCH  19  21
ATOM     21  C   UNL     1      12.138  15.924 -13.145  1.00  0.00     0.160 C 
BRANCH  21  22
ATOM     22  C   UNL     1      12.882  15.419 -14.354  1.00  0.00    -0.028 A 
ATOM     23  C   UNL     1      12.582  15.907 -15.636  1.00  0.00     0.005 A 
ATOM     24  C   UNL     1      13.873  14.434 -14.218  1.00  0.00     0.005 A 
ATOM     25  C   UNL     1      13.266  15.424 -16.754  1.00  0.00     0.000 A 
ATOM     26  C   UNL     1      14.555  13.955 -15.337  1.00  0.00     0.000 A 
ATOM     27  C   UNL     1      14.252  14.451 -16.604  1.00  0.00     0.000 A 
ENDBRANCH  21  22
ENDBRANCH  19  21
ENDBRANCH   1  11
BRANCH  10  28
ATOM     28  C   UNL     1      14.830   6.702  -5.248  1.00  0.00     0.160 C 
BRANCH  28  29
ATOM     29  C   UNL     1      15.555   5.582  -5.951  1.00  0.00    -0.028 A 
ATOM     30  C   UNL     1      14.993   4.979  -7.088  1.00  0.00     0.005 A 
ATOM     31  C   UNL     1      16.805   5.139  -5.496  1.00  0.00     0.005 A 
ATOM     32  C   UNL     1      15.666   3.951  -7.751  1.00  0.00     0.000 A 
ATOM     33  C   UNL     1      17.476   4.110  -6.162  1.00  0.00     0.000 A 
ATOM     34  C   UNL     1      16.906   3.516  -7.287  1.00  0.00     0.000 A 
ENDBRANCH  28  29
ENDBRANCH  10  28
TORSDOF 5
ENDMDL
MODEL 4
REMARK VINA RESULT:    -0.263      1.075     10.309
REMARK INTER + INTRA:          -0.764
REMARK INTER:                  -0.758
REMARK INTRA:                  -0.006
REMARK UNBOUND:                -0.425
REMARK SMILES C(#Cc1ncnc2c1ncn2Cc1ccccc1)c1ncnc2c1ncn2Cc1ccccc1
REMARK SMILES IDX 1 1 19 2 20 3 21 4 22 5 23 6 24 7 25 8 26 9 27 10 2 11 3 12
REMARK SMILES IDX 4 13 8 14 5 15 7 16 9 17 6 18 11 19 10 20 12 21 13 22 14 23
REMARK SMILES IDX 18 24 15 25 17 26 16 27 28 28 29 29 30 30 34 31 31 32 33 33
REMARK SMILES IDX 32 34
REMARK H PARENT
ROOT
ATOM      1  C   UNL     1      11.159  11.350  -9.330  1.00  0.00    -0.037 C 
ATOM      2  C   UNL     1      10.880  12.136 -10.480  1.00  0.00     0.144 A 
ATOM      3  N   UNL     1       9.812  11.788 -11.238  1.00  0.00    -0.225 NA
ATOM      4  C   UNL     1       9.555  12.548 -12.320  1.00  0.00     0.225 A 
ATOM      5  N   UNL     1      10.227  13.631 -12.760  1.00  0.00    -0.217 NA
ATOM      6  C   UNL     1      11.271  13.917 -11.958  1.00  0.00     0.164 A 
ATOM      7  C   UNL     1      11.669  13.232 -10.818  1.00  0.00     0.142 A 
ATOM      8  N   UNL     1      12.794  13.815 -10.269  1.00  0.00    -0.232 NA
ATOM      9  C   UNL     1      13.062  14.839 -11.051  1.00  0.00     0.202 A 
ATOM     10  N   UNL     1      12.166  14.943 -12.082  1.00  0.00    -0.311 N 
ENDROOT
BRANCH   1  11
ATOM     11  C   UNL     1      11.393  10.693  -8.352  1.00  0.00    -0.037 C 
ATOM     12  C   UNL     1      11.679   9.911  -7.201  1.00  0.00     0.144 A 
ATOM     13  N   UNL     1      10.816   9.982  -6.161  1.00  0.00    -0.225 NA
ATOM     14  C   UNL     1      12.806   9.098  -7.141  1.00  0.00     0.142 A 
ATOM     15  C   UNL     1      11.101   9.234  -5.077  1.00  0.00     0.225 A 
ATOM     16  C   UNL     1      12.959   8.387  -5.959  1.00  0.00     0.164 A 
ATOM     17  N   UNL     1      13.847   8.828  -8.006  1.00  0.00    -0.232 NA
ATOM     18  N   UNL     1      12.151   8.408  -4.883  1.00  0.00    -0.217 NA
ATOM     19  N   UNL     1      14.106   7.661  -6.131  1.00  0.00    -0.311 N 
ATOM     20  C   UNL     1      14.604   7.959  -7.370  1.00  0.00     0.202 A 
BRANCH  19  21
ATOM     21  C   UNL     1      14.716   6.774  -5.162  1.00  0.00     0.160 C 
BRANCH  21  22
ATOM     22  C   UNL     1      15.459   5.650  -5.837  1.00  0.00    -0.028 A 
ATOM     23  C   UNL     1      16.664   5.165  -5.305  1.00  0.00     0.005 A 
ATOM     24  C   UNL     1      14.967   5.087  -7.025  1.00  0.00     0.005 A 
ATOM     25  C   UNL     1      17.354   4.133  -5.944  1.00  0.00     0.000 A 
ATOM     26  C   UNL     1      15.658   4.055  -7.661  1.00  0.00     0.000 A 
ATOM     27  C   UNL     1      16.851   3.578  -7.120  1.00  0.00     0.000 A 
ENDBRANCH  21  22
ENDBRANCH  19  21
ENDBRANCH   1  11
BRANCH  10  28
ATOM     28  C   UNL     1      12.195  15.934 -13.139  1.00  0.00     0.160 C 
BRANCH  28  29
ATOM     29  C   UNL     1      12.902  15.409 -14.362  1.00  0.00    -0.028 A 
ATOM     30  C   UNL     1      12.589  15.915 -15.635  1.00  0.00     0.005 A 
ATOM     31  C   UNL     1      13.897  14.426 -14.251  1.00  0.00     0.005 A 
ATOM     32  C   UNL     1      13.251  15.444 -16.769  1.00  0.00     0.000 A 
ATOM     33  C   UNL     1      14.558  13.956 -15.389  1.00  0.00     0.000 A 
ATOM     34  C   UNL     1      14.234  14.464 -16.646  1.00  0.00     0.000 A 
ENDBRANCH  28  29
ENDBRANCH  10  28
TORSDOF 5
ENDMDL
MODEL 5
REMARK VINA RESULT:     0.771      1.488      2.776
REMARK INTER + INTRA:           0.572
REMARK INTER:                   0.401
REMARK INTRA:                   0.171
REMARK UNBOUND:                -0.425
REMARK SMILES C(#Cc1ncnc2c1ncn2Cc1ccccc1)c1ncnc2c1ncn2Cc1ccccc1
REMARK SMILES IDX 1 1 19 2 20 3 21 4 22 5 23 6 24 7 25 8 26 9 27 10 2 11 3 12
REMARK SMILES IDX 4 13 8 14 5 15 7 16 9 17 6 18 11 19 10 20 12 21 13 22 14 23
REMARK SMILES IDX 18 24 15 25 17 26 16 27 28 28 29 29 30 30 34 31 31 32 33 33
REMARK SMILES IDX 32 34
REMARK H PARENT
ROOT
ATOM      1  C   UNL     1      12.618   9.946  -7.164  1.00  0.00    -0.037 C 
ATOM      2  C   UNL     1      13.142   9.186  -6.084  1.00  0.00     0.144 A 
ATOM      3  N   UNL     1      13.088   9.731  -4.844  1.00  0.00    -0.225 NA
ATOM      4  C   UNL     1      13.581   8.996  -3.829  1.00  0.00     0.225 A 
ATOM      5  N   UNL     1      14.131   7.765  -3.878  1.00  0.00    -0.217 NA
ATOM      6  C   UNL     1      14.149   7.289  -5.138  1.00  0.00     0.164 A 
ATOM      7  C   UNL     1      13.688   7.922  -6.285  1.00  0.00     0.142 A 
ATOM      8  N   UNL     1      13.890   7.125  -7.395  1.00  0.00    -0.232 NA
ATOM      9  C   UNL     1      14.446   6.027  -6.928  1.00  0.00     0.202 A 
ATOM     10  N   UNL     1      14.618   6.079  -5.570  1.00  0.00    -0.311 N 
ENDROOT
BRANCH   1  11
ATOM     11  C   UNL     1      12.168  10.582  -8.079  1.00  0.00    -0.037 C 
ATOM     12  C   UNL     1      11.640  11.343  -9.155  1.00  0.00     0.144 A 
ATOM     13  N   UNL     1      10.770  10.731  -9.992  1.00  0.00    -0.225 NA
ATOM     14  C   UNL     1      12.003  12.672  -9.348  1.00  0.00     0.142 A 
ATOM     15  C   UNL     1      10.278  11.466 -11.009  1.00  0.00     0.225 A 
ATOM     16  C   UNL     1      11.408  13.295 -10.436  1.00  0.00     0.164 A 
ATOM     17  N   UNL     1      12.848  13.544  -8.693  1.00  0.00    -0.232 NA
ATOM     18  N   UNL     1      10.541  12.754 -11.312  1.00  0.00    -0.217 NA
ATOM     19  N   UNL     1      11.894  14.574 -10.418  1.00  0.00    -0.311 N 
ATOM     20  C   UNL     1      12.753  14.676  -9.359  1.00  0.00     0.202 A 
BRANCH  19  21
ATOM     21  C   UNL     1      11.595  15.621 -11.374  1.00  0.00     0.160 C 
BRANCH  21  22
ATOM     22  C   UNL     1      12.226  15.339 -12.713  1.00  0.00    -0.028 A 
ATOM     23  C   UNL     1      13.553  14.889 -12.801  1.00  0.00     0.005 A 
ATOM     24  C   UNL     1      11.500  15.544 -13.897  1.00  0.00     0.005 A 
ATOM     25  C   UNL     1      14.135  14.644 -14.046  1.00  0.00     0.000 A 
ATOM     26  C   UNL     1      12.084  15.297 -15.139  1.00  0.00     0.000 A 
ATOM     27  C   UNL     1      13.401  14.846 -15.214  1.00  0.00     0.000 A 
ENDBRANCH  21  22
ENDBRANCH  19  21
ENDBRANCH   1  11
BRANCH  10  28
ATOM     28  C   UNL     1      15.231   5.054  -4.748  1.00  0.00     0.160 C 
BRANCH  28  29
ATOM     29  C   UNL     1      16.283   4.295  -5.515  1.00  0.00    -0.028 A 
ATOM     30  C   UNL     1      16.926   4.889  -6.614  1.00  0.00     0.005 A 
ATOM     31  C   UNL     1      16.653   2.997  -5.135  1.00  0.00     0.005 A 
ATOM     32  C   UNL     1      17.912   4.197  -7.319  1.00  0.00     0.000 A 
ATOM     33  C   UNL     1      17.641   2.307  -5.844  1.00  0.00     0.000 A 
ATOM     34  C   UNL     1      18.268   2.906  -6.935  1.00  0.00     0.000 A 
ENDBRANCH  28  29
ENDBRANCH  10  28
TORSDOF 5
ENDMDL
