MODEL 1
REMARK VINA RESULT:     0.958      0.000      0.000
REMARK INTER + INTRA:           1.751
REMARK INTER:                   1.434
REMARK INTRA:                   0.317
REMARK UNBOUND:                 0.317
REMARK SMILES O=C(CCCOc1ccc2[nH]c3nc(O)nc-3cc2c1)N1CC[NH+](C(c2ccc(F)cc2)c2ccc(F)cc2)CC1
REMARK SMILES IDX 4 1 3 2 2 3 1 4 21 5 22 6 41 7 23 8 40 9 24 10 25 12 26 13
REMARK SMILES IDX 27 14 32 15 28 16 31 17 29 18 30 19 33 20 34 21 39 22 35 23
REMARK SMILES IDX 38 24 36 25 37 26 5 27 6 28 7 29 8 30 20 31 9 32 19 33 10 34
REMARK SMILES IDX 18 35 11 36 17 37 12 38 16 39 13 40 14 41 15 43
REMARK H PARENT 24 11 11 42 15 44
ROOT
ATOM      1  C   UNL     1      10.026  10.834  -7.288  1.00  0.00     0.051 C 
ENDROOT
BRANCH   1   2
ATOM      2  C   UNL     1      10.969  12.036  -7.268  1.00  0.00     0.104 C 
BRANCH   2   3
ATOM      3  C   UNL     1      11.715  12.182  -8.577  1.00  0.00     0.223 C 
ATOM      4  O   UNL     1      11.245  11.883  -9.675  1.00  0.00    -0.275 OA
ATOM      5  N   UNL     1      12.941  12.855  -8.502  1.00  0.00    -0.331 N 
ATOM      6  C   UNL     1      12.851  14.260  -8.101  1.00  0.00     0.181 C 
ATOM      7  C   UNL     1      13.857  12.659  -9.637  1.00  0.00     0.181 C 
ATOM      8  C   UNL     1      12.225  15.113  -9.240  1.00  0.00     0.284 C 
ATOM      9  C   UNL     1      13.650  13.706 -10.758  1.00  0.00     0.284 C 
ATOM     10  N   UNL     1      12.292  14.372 -10.587  1.00  0.00    -0.322 N 
ATOM     11  H   UNL     1      11.630  13.581 -10.517  1.00  0.00     0.349 HD
BRANCH  10  12
ATOM     12  C   UNL     1      11.831  15.204 -11.773  1.00  0.00     0.246 C 
BRANCH  12  13
ATOM     13  C   UNL     1      12.624  14.959 -13.057  1.00  0.00     0.014 A 
ATOM     14  C   UNL     1      12.089  15.388 -14.289  1.00  0.00     0.013 A 
ATOM     15  C   UNL     1      13.863  14.287 -13.062  1.00  0.00     0.013 A 
ATOM     16  C   UNL     1      12.783  15.171 -15.482  1.00  0.00     0.040 A 
ATOM     17  C   UNL     1      14.552  14.074 -14.258  1.00  0.00     0.040 A 
ATOM     18  C   UNL     1      14.007  14.518 -15.456  1.00  0.00     0.123 A 
ATOM     19  F   UNL     1      14.671  14.314 -16.600  1.00  0.00    -0.207 F 
ENDBRANCH  12  13
BRANCH  12  20
ATOM     20  C   UNL     1      10.328  15.095 -12.022  1.00  0.00     0.014 A 
ATOM     21  C   UNL     1       9.452  16.169 -11.767  1.00  0.00     0.013 A 
ATOM     22  C   UNL     1       9.788  13.891 -12.517  1.00  0.00     0.013 A 
ATOM     23  C   UNL     1       8.083  16.045 -12.016  1.00  0.00     0.040 A 
ATOM     24  C   UNL     1       8.419  13.773 -12.763  1.00  0.00     0.040 A 
ATOM     25  C   UNL     1       7.580  14.851 -12.513  1.00  0.00     0.123 A 
ATOM     26  F   UNL     1       6.270  14.736 -12.756  1.00  0.00    -0.207 F 
ENDBRANCH  12  20
ENDBRANCH  10  12
ENDBRANCH   2   3
ENDBRANCH   1   2
BRANCH   1  27
ATOM     27  C   UNL     1      10.696   9.565  -6.757  1.00  0.00     0.230 C 
BRANCH  27  28
ATOM     28  O   UNL     1      12.040   9.441  -7.218  1.00  0.00    -0.494 OA
BRANCH  28  29
ATOM     29  C   UNL     1      12.919   8.663  -6.520  1.00  0.00     0.120 A 
ATOM     30  C   UNL     1      13.270   8.804  -5.178  1.00  0.00     0.048 A 
ATOM     31  C   UNL     1      13.490   7.633  -7.277  1.00  0.00     0.056 A 
ATOM     32  C   UNL     1      14.184   7.921  -4.587  1.00  0.00     0.030 A 
ATOM     33  C   UNL     1      14.400   6.743  -6.700  1.00  0.00     0.004 A 
ATOM     34  C   UNL     1      14.758   6.891  -5.334  1.00  0.00     0.047 A 
ATOM     35  C   UNL     1      14.986   5.653  -7.509  1.00  0.00     0.043 C 
ATOM     36  N   UNL     1      15.660   5.987  -4.744  1.00  0.00    -0.338 N 
ATOM     37  C   UNL     1      15.845   4.812  -6.932  1.00  0.00     0.112 C 
ATOM     38  C   UNL     1      16.195   4.992  -5.506  1.00  0.00     0.162 C 
ATOM     39  N   UNL     1      16.533   3.739  -7.411  1.00  0.00    -0.192 NA
ATOM     40  N   UNL     1      17.053   4.066  -5.181  1.00  0.00    -0.176 NA
ATOM     41  C   UNL     1      17.195   3.375  -6.360  1.00  0.00     0.316 C 
ATOM     42  H   UNL     1      15.965   6.109  -3.792  1.00  0.00     0.168 HD
BRANCH  41  43
ATOM     43  O   UNL     1      18.040   2.349  -6.293  1.00  0.00    -0.479 OA
ATOM     44  H   UNL     1      18.149   2.012  -7.195  1.00  0.00     0.297 HD
ENDBRANCH  41  43
ENDBRANCH  28  29
ENDBRANCH  27  28
ENDBRANCH   1  27
TORSDOF 9
ENDMDL
MODEL 2
REMARK VINA RESULT:     1.050      1.722      2.113
REMARK INTER + INTRA:           1.890
REMARK INTER:                   1.542
REMARK INTRA:                   0.347
REMARK UNBOUND:                 0.317
REMARK SMILES O=C(CCCOc1ccc2[nH]c3nc(O)nc-3cc2c1)N1CC[NH+](C(c2ccc(F)cc2)c2ccc(F)cc2)CC1
REMARK SMILES IDX 4 1 3 2 2 3 1 4 21 5 22 6 41 7 23 8 40 9 24 10 25 12 26 13
REMARK SMILES IDX 27 14 32 15 28 16 31 17 29 18 30 19 33 20 34 21 39 22 35 23
REMARK SMILES IDX 38 24 36 25 37 26 5 27 6 28 7 29 8 30 20 31 9 32 19 33 10 34
REMARK SMILES IDX 18 35 11 36 17 37 12 38 16 39 13 40 14 41 15 43
REMARK H PARENT 24 11 11 42 15 44
ROOT
ATOM      1  C   UNL     1      10.834  11.561  -6.427  1.00  0.00     0.051 C 
ENDROOT
BRANCH   1   2
ATOM      2  C   UNL     1      12.228  12.185  -6.388  1.00  0.00     0.104 C 
BRANCH   2   3
ATOM      3  C   UNL     1      12.829  12.296  -7.773  1.00  0.00     0.223 C 
ATOM      4  O   UNL     1      12.671  11.458  -8.662  1.00  0.00    -0.275 OA
ATOM      5  N   UNL     1      13.450  13.516  -8.067  1.00  0.00    -0.331 N 
ATOM      6  C   UNL     1      12.557  14.676  -8.083  1.00  0.00     0.181 C 
ATOM      7  C   UNL     1      14.375  13.511  -9.212  1.00  0.00     0.181 C 
ATOM      8  C   UNL     1      11.620  14.626  -9.322  1.00  0.00     0.284 C 
ATOM      9  C   UNL     1      13.671  13.849 -10.549  1.00  0.00     0.284 C 
ATOM     10  N   UNL     1      12.168  13.666 -10.392  1.00  0.00    -0.322 N 
ATOM     11  H   UNL     1      12.069  12.712 -10.005  1.00  0.00     0.349 HD
BRANCH  10  12
ATOM     12  C   UNL     1      11.381  13.676 -11.692  1.00  0.00     0.246 C 
BRANCH  12  13
ATOM     13  C   UNL     1      12.167  14.195 -12.897  1.00  0.00     0.014 A 
ATOM     14  C   UNL     1      11.526  15.041 -13.825  1.00  0.00     0.013 A 
ATOM     15  C   UNL     1      13.508  13.833 -13.135  1.00  0.00     0.013 A 
ATOM     16  C   UNL     1      12.213  15.524 -14.941  1.00  0.00     0.040 A 
ATOM     17  C   UNL     1      14.189  14.321 -14.253  1.00  0.00     0.040 A 
ATOM     18  C   UNL     1      13.537  15.162 -15.145  1.00  0.00     0.123 A 
ATOM     19  F   UNL     1      14.193  15.629 -16.213  1.00  0.00    -0.207 F 
ENDBRANCH  12  13
BRANCH  12  20
ATOM     20  C   UNL     1      10.727  12.330 -11.998  1.00  0.00     0.014 A 
ATOM     21  C   UNL     1      10.133  12.058 -13.247  1.00  0.00     0.013 A 
ATOM     22  C   UNL     1      10.707  11.324 -11.011  1.00  0.00     0.013 A 
ATOM     23  C   UNL     1       9.554  10.813 -13.502  1.00  0.00     0.040 A 
ATOM     24  C   UNL     1      10.126  10.082 -11.273  1.00  0.00     0.040 A 
ATOM     25  C   UNL     1       9.557   9.837 -12.516  1.00  0.00     0.123 A 
ATOM     26  F   UNL     1       9.006   8.644 -12.765  1.00  0.00    -0.207 F 
ENDBRANCH  12  20
ENDBRANCH  10  12
ENDBRANCH   2   3
ENDBRANCH   1   2
BRANCH   1  27
ATOM     27  C   UNL     1      10.881  10.036  -6.303  1.00  0.00     0.230 C 
BRANCH  27  28
ATOM     28  O   UNL     1      11.982   9.478  -7.018  1.00  0.00    -0.494 OA
BRANCH  28  29
ATOM     29  C   UNL     1      12.877   8.685  -6.358  1.00  0.00     0.120 A 
ATOM     30  C   UNL     1      13.257   8.794  -5.021  1.00  0.00     0.048 A 
ATOM     31  C   UNL     1      13.433   7.675  -7.151  1.00  0.00     0.056 A 
ATOM     32  C   UNL     1      14.185   7.900  -4.471  1.00  0.00     0.030 A 
ATOM     33  C   UNL     1      14.357   6.773  -6.615  1.00  0.00     0.004 A 
ATOM     34  C   UNL     1      14.744   6.889  -5.255  1.00  0.00     0.047 A 
ATOM     35  C   UNL     1      14.927   5.703  -7.463  1.00  0.00     0.043 C 
ATOM     36  N   UNL     1      15.660   5.973  -4.707  1.00  0.00    -0.338 N 
ATOM     37  C   UNL     1      15.799   4.851  -6.925  1.00  0.00     0.112 C 
ATOM     38  C   UNL     1      16.180   4.997  -5.504  1.00  0.00     0.162 C 
ATOM     39  N   UNL     1      16.478   3.790  -7.445  1.00  0.00    -0.192 NA
ATOM     40  N   UNL     1      17.045   4.066  -5.219  1.00  0.00    -0.176 NA
ATOM     41  C   UNL     1      17.163   3.403  -6.417  1.00  0.00     0.316 C 
ATOM     42  H   UNL     1      15.986   6.073  -3.759  1.00  0.00     0.168 HD
BRANCH  41  43
ATOM     43  O   UNL     1      18.010   2.377  -6.393  1.00  0.00    -0.479 OA
ATOM     44  H   UNL     1      18.275   2.206  -7.309  1.00  0.00     0.297 HD
ENDBRANCH  41  43
ENDBRANCH  28  29
ENDBRANCH  27  28
ENDBRANCH   1  27
TORSDOF 9
ENDMDL
MODEL 3
REMARK VINA RESULT:     1.365      1.844      2.649
REMARK INTER + INTRA:           2.360
REMARK INTER:                   2.544
REMARK INTRA:                  -0.184
REMARK UNBOUND:                 0.317
REMARK SMILES O=C(CCCOc1ccc2[nH]c3nc(O)nc-3cc2c1)N1CC[NH+](C(c2ccc(F)cc2)c2ccc(F)cc2)CC1
REMARK SMILES IDX 4 1 3 2 2 3 1 4 21 5 22 6 41 7 23 8 40 9 24 10 25 12 26 13
REMARK SMILES IDX 27 14 32 15 28 16 31 17 29 18 30 19 33 20 34 21 39 22 35 23
REMARK SMILES IDX 38 24 36 25 37 26 5 27 6 28 7 29 8 30 20 31 9 32 19 33 10 34
REMARK SMILES IDX 18 35 11 36 17 37 12 38 16 39 13 40 14 41 15 43
REMARK H PARENT 24 11 11 42 15 44
ROOT
ATOM      1  C   UNL     1      10.646  11.205  -6.537  1.00  0.00     0.051 C 
ENDROOT
BRANCH   1   2
ATOM      2  C   UNL     1      10.003  10.341  -7.622  1.00  0.00     0.104 C 
BRANCH   2   3
ATOM      3  C   UNL     1      10.027  11.028  -8.970  1.00  0.00     0.223 C 
ATOM      4  O   UNL     1       9.583  12.159  -9.175  1.00  0.00    -0.275 OA
ATOM      5  N   UNL     1      10.755  10.373  -9.971  1.00  0.00    -0.331 N 
ATOM      6  C   UNL     1      12.192  10.261  -9.716  1.00  0.00     0.181 C 
ATOM      7  C   UNL     1      10.466  10.783 -11.354  1.00  0.00     0.181 C 
ATOM      8  C   UNL     1      12.879  11.649  -9.847  1.00  0.00     0.284 C 
ATOM      9  C   UNL     1      11.366  11.949 -11.831  1.00  0.00     0.284 C 
ATOM     10  N   UNL     1      11.990  12.636 -10.624  1.00  0.00    -0.322 N 
ATOM     11  H   UNL     1      11.185  12.847 -10.010  1.00  0.00     0.349 HD
BRANCH  10  12
ATOM     12  C   UNL     1      12.658  13.969 -10.918  1.00  0.00     0.246 C 
BRANCH  12  13
ATOM     13  C   UNL     1      12.787  14.291 -12.407  1.00  0.00     0.014 A 
ATOM     14  C   UNL     1      14.021  14.078 -13.053  1.00  0.00     0.013 A 
ATOM     15  C   UNL     1      11.721  14.826 -13.158  1.00  0.00     0.013 A 
ATOM     16  C   UNL     1      14.176  14.370 -14.411  1.00  0.00     0.040 A 
ATOM     17  C   UNL     1      11.882  15.115 -14.515  1.00  0.00     0.040 A 
ATOM     18  C   UNL     1      13.106  14.884 -15.130  1.00  0.00     0.123 A 
ATOM     19  F   UNL     1      13.255  15.161 -16.430  1.00  0.00    -0.207 F 
ENDBRANCH  12  13
BRANCH  12  20
ATOM     20  C   UNL     1      12.020  15.129 -10.156  1.00  0.00     0.014 A 
ATOM     21  C   UNL     1      11.486  16.251 -10.821  1.00  0.00     0.013 A 
ATOM     22  C   UNL     1      11.962  15.091  -8.749  1.00  0.00     0.013 A 
ATOM     23  C   UNL     1      10.897  17.292 -10.098  1.00  0.00     0.040 A 
ATOM     24  C   UNL     1      11.373  16.135  -8.033  1.00  0.00     0.040 A 
ATOM     25  C   UNL     1      10.844  17.224  -8.714  1.00  0.00     0.123 A 
ATOM     26  F   UNL     1      10.276  18.220  -8.025  1.00  0.00    -0.207 F 
ENDBRANCH  12  20
ENDBRANCH  10  12
ENDBRANCH   2   3
ENDBRANCH   1   2
BRANCH   1  27
ATOM     27  C   UNL     1      12.129  10.880  -6.344  1.00  0.00     0.230 C 
BRANCH  27  28
ATOM     28  O   UNL     1      12.493   9.657  -6.982  1.00  0.00    -0.494 OA
BRANCH  28  29
ATOM     29  C   UNL     1      13.261   8.752  -6.306  1.00  0.00     0.120 A 
ATOM     30  C   UNL     1      13.495   8.721  -4.932  1.00  0.00     0.048 A 
ATOM     31  C   UNL     1      13.845   7.779  -7.126  1.00  0.00     0.056 A 
ATOM     32  C   UNL     1      14.302   7.723  -4.371  1.00  0.00     0.030 A 
ATOM     33  C   UNL     1      14.650   6.775  -6.581  1.00  0.00     0.004 A 
ATOM     34  C   UNL     1      14.888   6.748  -5.181  1.00  0.00     0.047 A 
ATOM     35  C   UNL     1      15.250   5.746  -7.458  1.00  0.00     0.043 C 
ATOM     36  N   UNL     1      15.683   5.729  -4.626  1.00  0.00    -0.338 N 
ATOM     37  C   UNL     1      16.006   4.795  -6.911  1.00  0.00     0.112 C 
ATOM     38  C   UNL     1      16.233   4.793  -5.450  1.00  0.00     0.162 C 
ATOM     39  N   UNL     1      16.678   3.740  -7.451  1.00  0.00    -0.192 NA
ATOM     40  N   UNL     1      17.007   3.785  -5.162  1.00  0.00    -0.176 NA
ATOM     41  C   UNL     1      17.220   3.221  -6.397  1.00  0.00     0.316 C 
ATOM     42  H   UNL     1      15.905   5.725  -3.643  1.00  0.00     0.168 HD
BRANCH  41  43
ATOM     43  O   UNL     1      18.000   2.143  -6.378  1.00  0.00    -0.479 OA
ATOM     44  H   UNL     1      17.422   1.372  -6.485  1.00  0.00     0.297 HD
ENDBRANCH  41  43
ENDBRANCH  28  29
ENDBRANCH  27  28
ENDBRANCH   1  27
TORSDOF 9
ENDMDL
